
     Program PWSCF v.6.8 starts on 16Nov2021 at 21:39:23 

     This program is part of the open-source Quantum ESPRESSO suite
     for quantum simulation of materials; please cite
         "P. Giannozzi et al., J. Phys.:Condens. Matter 21 395502 (2009);
         "P. Giannozzi et al., J. Phys.:Condens. Matter 29 465901 (2017);
         "P. Giannozzi et al., J. Chem. Phys. 152 154105 (2020);
          URL http://www.quantum-espresso.org", 
     in publications or presentations arising from this work. More details at
     http://www.quantum-espresso.org/quote

     Parallel version (MPI & OpenMP), running on       8 processor cores
     Number of MPI processes:                 8
     Threads/MPI process:                     1

     MPI processes distributed on     1 nodes
     R & G space division:  proc/nbgrp/npool/nimage =       8
     870585 MiB available memory on the printing compute node when the environment starts
 
     Reading input from psiwat.in

     Current dimensions of program PWSCF are:
     Max number of different atomic species (ntypx) = 10
     Max number of k-points (npk) =  40000
     Max angular momentum in pseudopotentials (lmaxx) =  4

     Subspace diagonalization in iterative solution of the eigenvalue problem:
     a serial algorithm will be used

 
     Parallelization info
     --------------------
     sticks:   dense  smooth     PW     G-vecs:    dense   smooth      PW
     Min        2963    1185    309               776129   196341   26195
     Max        2964    1186    310               776134   196347   26200
     Sum       23705    9481   2477              6209049  1570761  209587
 
     Using Slab Decomposition
 

     Title: 
      pw psiwat benchmark                                                       


     bravais-lattice index     =            8
     lattice parameter (alat)  =      19.1980  a.u.
     unit-cell volume          =   45961.7646 (a.u.)^3
     number of atoms/cell      =          586
     number of atomic types    =            5
     number of electrons       =      2552.00
     number of Kohn-Sham states=         1531
     kinetic-energy cutoff     =      40.0000  Ry
     charge density cutoff     =     400.0000  Ry
     scf convergence threshold =      1.0E-08
     mixing beta               =       0.3000
     number of iterations used =            8  plain     mixing
     Exchange-correlation= SLA  PW   PBE  PBE
                           (   1   4   3   4   0   0   0)

     GPU acceleration is ACTIVE.
     GPU-aware MPI enabled


     celldm(1)=  19.197998  celldm(2)=   2.020770  celldm(3)=   3.214490
     celldm(4)=   0.000000  celldm(5)=   0.000000  celldm(6)=   0.000000

     crystal axes: (cart. coord. in units of alat)
               a(1) = (   1.000000   0.000000   0.000000 )  
               a(2) = (   0.000000   2.020770   0.000000 )  
               a(3) = (   0.000000   0.000000   3.214490 )  

     reciprocal axes: (cart. coord. in units 2 pi/alat)
               b(1) = (  1.000000  0.000000  0.000000 )  
               b(2) = (  0.000000  0.494861  0.000000 )  
               b(3) = (  0.000000  0.000000  0.311091 )  


     PseudoPot. # 1 for Au read from file:
     ./Au.pbe-van_ak.UPF
     MD5 check sum: b74ec8a2ed3fa838b173c6d3fcefe65d
     Pseudo is Ultrasoft, Zval = 11.0
     Generated by new atomic code, or converted to UPF format
     Using radial grid of  895 points,  6 beta functions with: 
                l(1) =   0
                l(2) =   0
                l(3) =   1
                l(4) =   1
                l(5) =   2
                l(6) =   2
     Q(r) pseudized with  8 coefficients,  rinner =    1.600   1.800   1.600
                                                       1.600   1.800

     PseudoPot. # 2 for O  read from file:
     ./O.pbe-van_bm.UPF
     MD5 check sum: 69e38b8a80407277c51b6767ef153629
     Pseudo is Ultrasoft, Zval =  6.0
     Generated by new atomic code, or converted to UPF format
     Using radial grid of  737 points,  4 beta functions with: 
                l(1) =   0
                l(2) =   0
                l(3) =   1
                l(4) =   1
     Q(r) pseudized with  8 coefficients,  rinner =    0.800   0.800   0.800


     PseudoPot. # 3 for C  read from file:
     ./C.pbe-van_bm.UPF
     MD5 check sum: 221bd0865b555dfe45f643e49cead3b6
     Pseudo is Ultrasoft, Zval =  4.0
     Generated by new atomic code, or converted to UPF format
     Using radial grid of  721 points,  4 beta functions with: 
                l(1) =   0
                l(2) =   0
                l(3) =   1
                l(4) =   1
     Q(r) pseudized with  8 coefficients,  rinner =    0.800   0.800   0.800


     PseudoPot. # 4 for N  read from file:
     ./N.pbe-van_bm.UPF
     MD5 check sum: b8ee88085f163b5988ff3f932cf6e056
     Pseudo is Ultrasoft, Zval =  5.0
     Generated by new atomic code, or converted to UPF format
     Using radial grid of  729 points,  4 beta functions with: 
                l(1) =   0
                l(2) =   0
                l(3) =   1
                l(4) =   1
     Q(r) pseudized with  8 coefficients,  rinner =    0.800   0.800   0.800


     PseudoPot. # 5 for H  read from file:
     ./H.pbe-van_bm.UPF
     MD5 check sum: c367b52f144143ae76d2a45bb6e90e48
     Pseudo is Ultrasoft, Zval =  1.0
     Generated by new atomic code, or converted to UPF format
     Using radial grid of  615 points,  1 beta functions with: 
                l(1) =   0
     Q(r) pseudized with  8 coefficients,  rinner =    0.800

     atomic species   valence    mass     pseudopotential
        Au            11.00   196.96654     Au( 1.00)
        O              6.00    15.99900     O ( 1.00)
        C              4.00    12.01000     C ( 1.00)
        N              5.00    14.01000     N ( 1.00)
        H              1.00     2.00800     H ( 1.00)

     No symmetry found



   Cartesian axes

     site n.     atom                  positions (alat units)
         1           N   tau(   1) = (   0.2389394   0.5277476   1.8721425  )
         2           H   tau(   2) = (   0.1483212   0.5190008   1.8445927  )
         3           C   tau(   3) = (   0.3024794   0.6659442   1.8558804  )
         4           H   tau(   4) = (   0.4075996   0.6557765   1.8991400  )
         5           C   tau(   5) = (   0.3308417   0.7115323   1.7076774  )
         6           H   tau(   6) = (   0.3729810   0.6244190   1.6513382  )
         7           H   tau(   7) = (   0.4051775   0.7896810   1.7043697  )
         8           O   tau(   8) = (   0.2208063   0.7671943   1.6322529  )
         9           H   tau(   9) = (   0.1927596   0.7032554   1.5581359  )
        10           C   tau(  10) = (   0.2109308   0.7652254   1.9284660  )
        11           O   tau(  11) = (   0.0911178   0.7500988   1.9362324  )
        12           N   tau(  12) = (   0.2754380   0.8722469   1.9728352  )
        13           H   tau(  13) = (   0.3751728   0.8600789   1.9788410  )
        14           C   tau(  14) = (   0.2164241   0.9906394   2.0203401  )
        15           H   tau(  15) = (   0.1097687   0.9892747   2.0006505  )
        16           C   tau(  16) = (   0.2359225   1.0104227   2.1716371  )
        17           H   tau(  17) = (   0.1665069   1.0940095   2.1976606  )
        18           H   tau(  18) = (   0.3414683   1.0345137   2.1955458  )
        19           O   tau(  19) = (   0.1971746   0.8936189   2.2456240  )
        20           H   tau(  20) = (   0.2684019   0.8344669   2.2678658  )
        21           C   tau(  21) = (   0.2802979   1.1084589   1.9482493  )
        22           O   tau(  22) = (   0.4017750   1.1129125   1.9221893  )
        23           N   tau(  23) = (   0.1934634   1.2055731   1.9318569  )
        24           H   tau(  24) = (   0.0923080   1.1664493   1.9408058  )
        25           C   tau(  25) = (   0.2151979   1.3162565   1.8431238  )
        26           H   tau(  26) = (   0.3229487   1.3329979   1.8326070  )
        27           C   tau(  27) = (   0.1637796   1.2736375   1.7097297  )
        28           H   tau(  28) = (   0.0643301   1.2315551   1.7090265  )
        29           H   tau(  29) = (   0.2327835   1.1948012   1.6740333  )
        30           O   tau(  30) = (   0.1637863   1.3756794   1.6061408  )
        31           H   tau(  31) = (   0.2549124   1.4036093   1.6001663  )
        32           C   tau(  32) = (   0.1587087   1.4368420   1.9019163  )
        33           O   tau(  33) = (   0.0387215   1.4567347   1.9181680  )
        34           N   tau(  34) = (   0.2467981   1.5353470   1.9324663  )
        35           H   tau(  35) = (   0.3441029   1.5161159   1.9088077  )
        36           C   tau(  36) = (   0.2024080   1.6688505   1.9518851  )
        37           H   tau(  37) = (   0.1113856   1.6784973   1.9015569  )
        38           C   tau(  38) = (   0.1994322   1.7059689   2.1059271  )
        39           H   tau(  39) = (   0.1421601   1.6175223   2.1411131  )
        40           H   tau(  40) = (   0.1391223   1.7984264   2.1108808  )
        41           O   tau(  41) = (   0.3235179   1.7222310   2.1673814  )
        42           H   tau(  42) = (   0.3618527   1.6297474   2.1803047  )
        43           C   tau(  43) = (   0.2945639   1.7743197   1.8884201  )
        44           O   tau(  44) = (   0.4175444   1.7742052   1.8718143  )
        45           N   tau(  45) = (   0.2281534   1.8873054   1.8504319  )
        46           H   tau(  46) = (   0.1290467   1.8878003   1.8669595  )
        47           C   tau(  47) = (   0.2852213   2.0118966   1.8066512  )
        48           H   tau(  48) = (   0.3852165   2.0210172   1.8478222  )
        49           C   tau(  49) = (   0.3165266   2.0266845   1.6584170  )
        50           H   tau(  50) = (   0.3873517   1.9493223   1.6308153  )
        51           H   tau(  51) = (   0.3575617   2.1245228   1.6478848  )
        52           O   tau(  52) = (   1.2063597   2.0189025   1.5712882  )
        53           H   tau(  53) = (   1.1803414   1.9190223   1.5623550  )
        54           C   tau(  54) = (   0.1955349   0.0980242   1.8587452  )
        55           O   tau(  55) = (   0.0704505   0.0983478   1.8608079  )
        56           N   tau(  56) = (   0.2624793   0.2032112   1.9015674  )
        57           H   tau(  57) = (   0.3685044   0.1975830   1.9087296  )
        58           C   tau(  58) = (   0.1983128   0.3167693   1.9644229  )
        59           H   tau(  59) = (   0.0969908   0.3171147   1.9264189  )
        60           C   tau(  60) = (   0.1881961   0.2919506   2.1126257  )
        61           H   tau(  61) = (   0.1964230   0.3795259   2.1750645  )
        62           H   tau(  62) = (   0.2687826   0.2266047   2.1407640  )
        63           O   tau(  63) = (   0.0625753   0.2285659   2.1457020  )
        64           H   tau(  64) = (   0.0101998   0.2984321   2.1915037  )
        65           C   tau(  65) = (   0.2957979   0.4348546   1.9334352  )
        66           O   tau(  66) = (   0.4161646   0.4196712   1.9585733  )
        67           N   tau(  67) = (   0.7066984   0.3230715   1.9316746  )
        68           H   tau(  68) = (   0.6071048   0.3266037   1.8875398  )
        69           C   tau(  69) = (   0.7641888   0.1931706   1.9458011  )
        70           H   tau(  70) = (   0.8677621   0.2033529   1.9198349  )
        71           C   tau(  71) = (   0.7731011   0.1463620   2.0893785  )
        72           H   tau(  72) = (   0.6869411   0.0877586   2.1254760  )
        73           H   tau(  73) = (   0.7793831   0.2241436   2.1591566  )
        74           O   tau(  74) = (   0.8831699   0.0578284   2.0948635  )
        75           H   tau(  75) = (   0.9644439   0.1074059   2.0736269  )
        76           C   tau(  76) = (   0.6935460   0.0857860   1.8723768  )
        77           O   tau(  77) = (   0.5692987   0.0824060   1.8605891  )
        78           N   tau(  78) = (   0.7739919   2.0132925   1.8242520  )
        79           H   tau(  79) = (   0.8712364   2.0361438   1.8467335  )
        80           C   tau(  80) = (   0.7328887   1.8972544   1.7589327  )
        81           H   tau(  81) = (   0.6299509   1.9055469   1.7663085  )
        82           C   tau(  82) = (   0.7652931   1.9143707   1.6149126  )
        83           H   tau(  83) = (   0.8691372   1.9343364   1.6021560  )
        84           H   tau(  84) = (   0.7098967   2.0004318   1.5751637  )
        85           O   tau(  85) = (   0.7377590   1.7927175   1.5438687  )
        86           H   tau(  86) = (   0.7559327   1.7976243   1.4495620  )
        87           C   tau(  87) = (   0.7994320   1.7664022   1.8225696  )
        88           O   tau(  88) = (   0.9224969   1.7456553   1.8109173  )
        89           N   tau(  89) = (   0.7109488   1.6917070   1.8815236  )
        90           H   tau(  90) = (   0.6176370   1.7268669   1.8790963  )
        91           C   tau(  91) = (   0.7254243   1.5828832   1.9736217  )
        92           H   tau(  92) = (   0.8335189   1.5619539   2.0034164  )
        93           C   tau(  93) = (   0.6559275   1.6238250   2.1027445  )
        94           H   tau(  94) = (   0.5487809   1.6374358   2.0875763  )
        95           H   tau(  95) = (   0.7089747   1.7115215   2.1343832  )
        96           O   tau(  96) = (   0.6645377   1.5301173   2.2074950  )
        97           H   tau(  97) = (   0.7594539   1.5189026   2.2367376  )
        98           C   tau(  98) = (   0.6673349   1.4574170   1.9090629  )
        99           O   tau(  99) = (   0.5479892   1.4466503   1.8869304  )
       100           N   tau( 100) = (   0.7539064   1.3613862   1.8832582  )
       101           H   tau( 101) = (   0.8530261   1.3826853   1.9036666  )
       102           C   tau( 102) = (   0.7286642   1.2338730   1.8282316  )
       103           H   tau( 103) = (   0.6176631   1.2314456   1.8258980  )
       104           C   tau( 104) = (   0.7625584   1.2312581   1.6711007  )
       105           H   tau( 105) = (   0.7132199   1.1452127   1.6282629  )
       106           H   tau( 106) = (   0.8680121   1.2109539   1.6524008  )
       107           O   tau( 107) = (   0.7196477   1.3443376   1.6083702  )
       108           H   tau( 108) = (   0.7853732   1.4120164   1.6063700  )
       109           C   tau( 109) = (   0.7828001   1.1239710   1.9185587  )
       110           O   tau( 110) = (   0.9006457   1.1389204   1.9539894  )
       111           N   tau( 111) = (   0.7094278   1.0177828   1.9326227  )
       112           H   tau( 112) = (   0.6167412   1.0202935   1.8951084  )
       113           C   tau( 113) = (   0.7721167   0.9070630   1.9948635  )
       114           H   tau( 114) = (   0.8812738   0.9030626   1.9869043  )
       115           C   tau( 115) = (   0.7280912   0.9001716   2.1430091  )
       116           H   tau( 116) = (   0.6218719   0.8700331   2.1345603  )
       117           H   tau( 117) = (   0.7506300   1.0043543   2.1749916  )
       118           O   tau( 118) = (   0.7944055   0.8099956   2.2248457  )
       119           H   tau( 119) = (   0.8552764   0.8539741   2.2884617  )
       120           C   tau( 120) = (   0.7121573   0.7740960   1.9395505  )
       121           O   tau( 121) = (   0.5841961   0.7701112   1.9186160  )
       122           N   tau( 122) = (   0.7868265   0.6674340   1.9273044  )
       123           H   tau( 123) = (   0.8887695   0.6570318   1.9289140  )
       124           C   tau( 124) = (   0.7195487   0.5546617   1.8738665  )
       125           H   tau( 125) = (   0.6178923   0.5499738   1.9112923  )
       126           C   tau( 126) = (   0.7051566   0.5713927   1.7243666  )
       127           H   tau( 127) = (   0.6519271   0.6644752   1.7092661  )
       128           H   tau( 128) = (   0.6417802   0.4900238   1.6848626  )
       129           O   tau( 129) = (   0.8283725   0.5769453   1.6577139  )
       130           H   tau( 130) = (   0.8445357   0.6680069   1.6241270  )
       131           C   tau( 131) = (   0.7925095   0.4278392   1.9056199  )
       132           O   tau( 132) = (   0.9133345   0.4177095   1.8933008  )
       133           Au  tau( 133) = (   0.3254396   1.1750648   0.5885143  )
       134           Au  tau( 134) = (   0.3813188   1.0945148   1.3136625  )
       135           Au  tau( 135) = (   0.8369203   1.0162827   0.5685955  )
       136           Au  tau( 136) = (   0.9223146   0.9919156   1.3579744  )
       137           Au  tau( 137) = (   0.5254296   1.3729552   0.5567870  )
       138           Au  tau( 138) = (   0.2975981   1.3551512   1.3248356  )
       139           Au  tau( 139) = (   0.9943585   1.4978535   0.5371287  )
       140           Au  tau( 140) = (   0.8236481   1.2418321   1.2925718  )
       141           Au  tau( 141) = (   0.4179491   1.6597245   0.5445254  )
       142           Au  tau( 142) = (   0.2422174   1.6116518   1.2635948  )
       143           Au  tau( 143) = (   0.8995831   1.7799453   0.5410197  )
       144           Au  tau( 144) = (   0.7722417   1.5144854   1.2395871  )
       145           Au  tau( 145) = (   0.3392197   1.9124591   0.5208927  )
       146           Au  tau( 146) = (   0.1783003   1.9025102   1.2809560  )
       147           Au  tau( 147) = (   1.0871286   1.9760699   0.4766573  )
       148           Au  tau( 148) = (   0.6501300   2.0379045   1.2891651  )
       149           Au  tau( 149) = (   0.5545680   0.0774466   0.5223876  )
       150           Au  tau( 150) = (   0.5886028   0.2960495   1.2843939  )
       151           Au  tau( 151) = (   1.0270078   0.2108135   0.5302946  )
       152           Au  tau( 152) = (   0.8504738   0.2259458   1.3180275  )
       153           Au  tau( 153) = (   0.4888476   0.3361115   0.5552399  )
       154           Au  tau( 154) = (   0.5012286   0.5707468   1.3461243  )
       155           Au  tau( 155) = (   0.9607926   0.4822038   0.5600686  )
       156           Au  tau( 156) = (   1.0447700   0.4111730   1.3498329  )
       157           Au  tau( 157) = (   0.3558709   0.8804092   0.5859515  )
       158           Au  tau( 158) = (   0.4453384   0.8429209   1.3482390  )
       159           Au  tau( 159) = (   0.8820656   0.7403582   0.6143243  )
       160           Au  tau( 160) = (   0.9612822   0.7062974   1.3361180  )
       161           Au  tau( 161) = (   0.3939013   1.3154596   0.8121313  )
       162           Au  tau( 162) = (   0.9208821   1.1059847   0.8121573  )
       163           Au  tau( 163) = (   0.3146004   1.6052449   0.8204446  )
       164           Au  tau( 164) = (   0.7412593   1.7285129   0.8379881  )
       165           Au  tau( 165) = (   0.2378518   1.7928894   1.0407384  )
       166           Au  tau( 166) = (   0.7020990   1.9339666   1.0290913  )
       167           Au  tau( 167) = (   0.1954422  -0.1569549   0.7828782  )
       168           Au  tau( 168) = (   0.6651368  -0.0147491   0.7724604  )
       169           Au  tau( 169) = (   0.3774153   0.4264010   0.8012447  )
       170           Au  tau( 170) = (   1.0371494   0.2914058   1.0567296  )
       171           Au  tau( 171) = (   0.4322245   0.6062609   0.5778308  )
       172           Au  tau( 172) = (   1.0689756   0.8313936   0.8458118  )
       173           Au  tau( 173) = (   0.5177320   0.9841231   0.8185174  )
       174           Au  tau( 174) = (   0.7739866   0.8936553   0.8467911  )
       175           Au  tau( 175) = (   0.2134654   1.2649179   1.0526250  )
       176           Au  tau( 176) = (   0.7822635   1.1164702   1.0439157  )
       177           Au  tau( 177) = (  -0.1591144   1.4448688   0.7719188  )
       178           Au  tau( 178) = (   0.3868501   1.4655586   1.0350763  )
       179           Au  tau( 179) = (  -0.0532254   1.7943583   1.0298205  )
       180           Au  tau( 180) = (   0.5593029   1.6724081   1.0352117  )
       181           Au  tau( 181) = (   0.1262658   2.0477544   1.0568337  )
       182           Au  tau( 182) = (   0.6019531   2.2344301   0.9045575  )
       183           Au  tau( 183) = (   0.1232045   0.1611053   1.3011092  )
       184           Au  tau( 184) = (   0.7811228   0.3562573   1.0697622  )
       185           Au  tau( 185) = (   0.4474063   0.6697102   1.1067504  )
       186           Au  tau( 186) = (   0.9869359   0.5647253   1.0067817  )
       187           Au  tau( 187) = (   0.3383930   0.9514374   1.0570942  )
       188           Au  tau( 188) = (   0.9066306   0.8394727   1.1212936  )
       189           Au  tau( 189) = (   0.2345119   1.0709915   0.8253826  )
       190           Au  tau( 190) = (   0.5911500   1.0945825   0.6003592  )
       191           Au  tau( 191) = (   0.1096005   1.3766274   0.7824510  )
       192           Au  tau( 192) = (   0.6679131   1.2386287   0.8116677  )
       193           Au  tau( 193) = (   0.0175198   1.6492494   0.8014270  )
       194           Au  tau( 194) = (   0.5908583   1.5298152   0.7852482  )
       195           Au  tau( 195) = (  -0.0655834   1.9244187   0.7574120  )
       196           Au  tau( 196) = (   0.4633163   1.8213298   0.8014999  )
       197           Au  tau( 197) = (   0.1094030   0.1114788   0.7674287  )
       198           Au  tau( 198) = (   0.3981070   0.0605979   0.7856441  )
       199           Au  tau( 199) = (   0.0626940   0.3911521   0.7987861  )
       200           Au  tau( 200) = (   0.7640533   0.4103213   0.8135116  )
       201           Au  tau( 201) = (   0.3386357   0.7522448   0.8666473  )
       202           Au  tau( 202) = (   0.6053181   0.6528386   0.8570422  )
       203           Au  tau( 203) = (   0.0521570   1.2071984   0.5843003  )
       204           Au  tau( 204) = (   0.1041045   1.1740855   1.2927020  )
       205           Au  tau( 205) = (   0.7889257   1.3009528   0.5360088  )
       206           Au  tau( 206) = (   0.5705592   1.2981140   1.2858106  )
       207           Au  tau( 207) = (   0.2528258   1.4435510   0.5516719  )
       208           Au  tau( 208) = (   0.0330793   1.4294715   1.2768827  )
       209           Au  tau( 209) = (   0.7036929   1.5860762   0.5349878  )
       210           Au  tau( 210) = (   0.4896383   1.5666055   1.2639542  )
       211           Au  tau( 211) = (   0.1623080   1.7125946   0.5407593  )
       212           Au  tau( 212) = (  -0.0096016   1.6935093   1.2603497  )
       213           Au  tau( 213) = (   0.6252941   1.8416184   0.5624074  )
       214           Au  tau( 214) = (   0.4412370   1.8533332   1.2252470  )
       215           Au  tau( 215) = (   0.2840264   0.1408896   0.5265599  )
       216           Au  tau( 216) = (  -0.0782092  -0.0241309   1.2451763  )
       217           Au  tau( 217) = (   0.8218197   0.0293925   0.5027877  )
       218           Au  tau( 218) = (   0.3970861   0.1051583   1.3045835  )
       219           Au  tau( 219) = (   0.2268574   0.4101926   0.5497289  )
       220           Au  tau( 220) = (   0.3118569   0.3494176   1.3375243  )
       221           Au  tau( 221) = (   0.7701112   0.2947983   0.5518125  )
       222           Au  tau( 222) = (   0.7834824   0.5057666   1.3189755  )
       223           Au  tau( 223) = (   0.1593608   0.6696841   0.6153868  )
       224           Au  tau( 224) = (   0.2251021   0.6111573   1.3199548  )
       225           Au  tau( 225) = (   0.6942856   0.5391914   0.5830658  )
       226           Au  tau( 226) = (   0.7058390   0.7609281   1.3595110  )
       227           Au  tau( 227) = (   0.1107542   0.9511509   0.5756900  )
       228           Au  tau( 228) = (   0.1754776   0.9070526   1.3117039  )
       229           Au  tau( 229) = (   0.6315344   0.8130376   0.6304248  )
       230           Au  tau( 230) = (   0.6413635   1.0337012   1.3384203  )
       231           Au  tau( 231) = (   0.4781788   1.1669442   1.0304092  )
       232           Au  tau( 232) = (   0.1302250   1.5400819   1.0087193  )
       233           Au  tau( 233) = (   0.4361292   2.0187827   1.0285339  )
       234           Au  tau( 234) = (   0.2838310   0.2346379   0.9586152  )
       235           Au  tau( 235) = (   0.5083164   0.3972376   1.0494788  )
       236           Au  tau( 236) = (   0.7234970   0.6520990   1.0932594  )
       237           Au  tau( 237) = (   0.6103186   0.8991351   1.0851336  )
       238           Au  tau( 238) = (   0.9266015   1.3622873   1.0293882  )
       239           Au  tau( 239) = (   0.6787112   1.3928374   1.0354201  )
       240           Au  tau( 240) = (   0.7259869   1.7791223   1.2384516  )
       241           Au  tau( 241) = (  -0.1393957   0.1236477   0.9042606  )
       242           Au  tau( 242) = (   1.2380193   0.4918782   1.0233406  )
       243           Au  tau( 243) = (   1.1495621   0.7434835   1.0967858  )
       244           Au  tau( 244) = (   1.0615635   1.0411237   1.0446710  )
       245           O   tau( 245) = (   0.8050524   0.8586205   1.6516716  )
       246           H   tau( 246) = (   0.7691789   0.8743461   1.5664544  )
       247           H   tau( 247) = (   0.8784350   0.9181579   1.6570003  )
       248           O   tau( 248) = (   0.9362014   1.5093287   1.6524685  )
       249           H   tau( 249) = (   1.0196736   1.4712153   1.6201683  )
       250           H   tau( 250) = (   0.9604852   1.5679389   1.7255491  )
       251           O   tau( 251) = (   0.4655880   1.4170430   1.6498172  )
       252           H   tau( 252) = (   0.4784158   1.4242209   1.7492339  )
       253           H   tau( 253) = (   0.5365401   1.3662565   1.6146001  )
       254           O   tau( 254) = (   1.5158866   1.2501664   3.0820858  )
       255           H   tau( 255) = (   1.4294349   1.2113030   3.1091043  )
       256           H   tau( 256) = (   1.5181265   1.2379255   2.9864666  )
       257           O   tau( 257) = (   1.0472547  -0.1313970   3.2984781  )
       258           H   tau( 258) = (   1.0198195  -0.1256183   3.2017024  )
       259           H   tau( 259) = (   1.0871338  -0.0405528   3.2992490  )
       260           O   tau( 260) = (   0.3660010  -0.5531460  -0.0364197  )
       261           H   tau( 261) = (   0.4345759  -0.6241169  -0.0722486  )
       262           H   tau( 262) = (   0.3612214  -0.5573444   0.0576925  )
       263           O   tau( 263) = (   0.1110579   1.7702360   1.5876597  )
       264           H   tau( 264) = (   0.0204536   1.7421706   1.6065732  )
       265           H   tau( 265) = (   0.1693483   1.6974628   1.6056200  )
       266           O   tau( 266) = (   0.0763116   0.9789923   1.6295755  )
       267           H   tau( 267) = (   0.1566106   0.9220958   1.6106048  )
       268           H   tau( 268) = (   0.0698443   1.0387433   1.5595578  )
       269           O   tau( 269) = (   0.0385007   0.4280653   1.6490255  )
       270           H   tau( 270) = (  -0.0428346   0.4770480   1.6477754  )
       271           H   tau( 271) = (   0.0780524   0.4677908   1.5724342  )
       272           O   tau( 272) = (   0.9425563   0.1515600   1.5954262  )
       273           H   tau( 273) = (   1.0249294   0.0981331   1.5956554  )
       274           H   tau( 274) = (   0.9736376   0.2419960   1.6271482  )
       275           O   tau( 275) = (   0.5015047   0.3136076   1.6302892  )
       276           H   tau( 276) = (   0.5628293   0.2499931   1.5832687  )
       277           H   tau( 277) = (   0.4243181   0.3104307   1.5720227  )
       278           O   tau( 278) = (   0.3906416   0.9455358   0.2991144  )
       279           H   tau( 279) = (   0.3494582   1.0336021   0.3221580  )
       280           H   tau( 280) = (   0.4797941   0.9493069   0.3446952  )
       281           O   tau( 281) = (   0.6674756   1.5504788   2.6029423  )
       282           H   tau( 282) = (   0.6635065   1.4714654   2.5435767  )
       283           H   tau( 283) = (   0.6534116   1.6176628   2.5309973  )
       284           O   tau( 284) = (   0.3238165   1.1079537   2.7098753  )
       285           H   tau( 285) = (   0.3996582   1.1582610   2.7414879  )
       286           H   tau( 286) = (   0.2485117   1.1700695   2.7333204  )
       287           O   tau( 287) = (   0.7223147   0.5342378   2.5509108  )
       288           H   tau( 288) = (   0.6288570   0.5694498   2.5600837  )
       289           H   tau( 289) = (   0.7406342   0.5167766   2.4523121  )
       290           O   tau( 290) = (   0.5745962   1.0117770   2.4094170  )
       291           H   tau( 291) = (   0.6193925   0.9757420   2.4891544  )
       292           H   tau( 292) = (   0.6011197   0.9639335   2.3329664  )
       293           O   tau( 293) = (  -0.1953333   0.9202623   2.9472229  )
       294           H   tau( 294) = (  -0.1378226   0.9735959   2.8956758  )
       295           H   tau( 295) = (  -0.2814516   0.9190069   2.8863780  )
       296           O   tau( 296) = (   0.8585111   0.8810551   0.2056302  )
       297           H   tau( 297) = (   0.9358577   0.8241377   0.2041004  )
       298           H   tau( 298) = (   0.8247992   0.8661161   0.1187790  )
       299           O   tau( 299) = (   1.1190225   0.6121053   2.2166834  )
       300           H   tau( 300) = (   1.0554899   0.5383893   2.2099796  )
       301           H   tau( 301) = (   1.0795757   0.6941867   2.1785284  )
       302           O   tau( 302) = (   0.7892591   1.1735542   3.0956810  )
       303           H   tau( 303) = (   0.6932803   1.1615530   3.0988896  )
       304           H   tau( 304) = (   0.8197779   1.0882172   3.0634902  )
       305           O   tau( 305) = (   0.8583600   1.4370139   3.0330078  )
       306           H   tau( 306) = (   0.8400873   1.3381286   3.0444621  )
       307           H   tau( 307) = (   0.9513541   1.4500621   3.0624484  )
       308           O   tau( 308) = (   0.0984894   0.2903312   0.2575008  )
       309           H   tau( 309) = (   0.1688212   0.3252614   0.3143869  )
       310           H   tau( 310) = (   0.0581018   0.3677236   0.2100442  )
       311           O   tau( 311) = (   0.4643279  -0.3525355   2.9865759  )
       312           H   tau( 312) = (   0.5334668  -0.3835685   3.0523536  )
       313           H   tau( 313) = (   0.3822559  -0.3623965   3.0302419  )
       314           O   tau( 314) = (   0.9478120   0.0369237   2.7765802  )
       315           H   tau( 315) = (   1.0102196   0.1078414   2.7672979  )
       316           H   tau( 316) = (   0.9614488  -0.0237082   2.7060676  )
       317           O   tau( 317) = (   0.4433997  -0.4361395   0.2335800  )
       318           H   tau( 318) = (   0.4027361  -0.3475522   0.2171100  )
       319           H   tau( 319) = (   0.5351858  -0.4294738   0.2038066  )
       320           O   tau( 320) = (   0.4905640   1.6508017   1.5033593  )
       321           H   tau( 321) = (   0.5765286   1.6978900   1.5260544  )
       322           H   tau( 322) = (   0.4947159   1.5679337   1.5604226  )
       323           O   tau( 323) = (   0.7304145   0.5121954   0.2784300  )
       324           H   tau( 324) = (   0.8201009   0.5441034   0.2667147  )
       325           H   tau( 325) = (   0.7324407   0.4327850   0.2173762  )
       326           O   tau( 326) = (   0.0971732   1.7544062   2.3868573  )
       327           H   tau( 327) = (   0.1972673   1.7330030   2.4196472  )
       328           H   tau( 328) = (   0.1093723   1.8466867   2.3492024  )
       329           O   tau( 329) = (   0.2953510   0.7965671  -0.0422656  )
       330           H   tau( 330) = (   0.3345889   0.7045889  -0.0269130  )
       331           H   tau( 331) = (   0.2291321   0.7815343  -0.1170559  )
       332           O   tau( 332) = (   0.7606988   0.1848286   0.2156786  )
       333           H   tau( 333) = (   0.8390663   0.1737644   0.1676815  )
       334           H   tau( 334) = (   0.7759608   0.1511011   0.3012672  )
       335           O   tau( 335) = (   1.0370817   0.0239168   2.3937904  )
       336           H   tau( 336) = (   0.9867796   0.0820444   2.3331643  )
       337           H   tau( 337) = (   0.9727469  -0.0214940   2.4467802  )
       338           O   tau( 338) = (   0.4871761   0.6804040   0.2286644  )
       339           H   tau( 339) = (   0.5737992   0.6734293   0.2619048  )
       340           H   tau( 340) = (   0.4637252   0.7708509   0.2466647  )
       341           O   tau( 341) = (   1.1154753   1.3023176   2.8619588  )
       342           H   tau( 342) = (   1.1400299   1.3441344   2.9475146  )
       343           H   tau( 343) = (   1.1262628   1.3760336   2.7995721  )
       344           O   tau( 344) = (   1.1130948   1.4561721  -0.1336519  )
       345           H   tau( 345) = (   1.1919623   1.4632458  -0.0732316  )
       346           H   tau( 346) = (   1.1319718   1.5393318  -0.1829430  )
       347           O   tau( 347) = (   0.5133565   0.6427491  -0.3695831  )
       348           H   tau( 348) = (   0.4772621   0.5534169  -0.3629611  )
       349           H   tau( 349) = (   0.6108395   0.6274298  -0.3897259  )
       350           O   tau( 350) = (   1.1135011   1.7044948   2.7078698  )
       351           H   tau( 351) = (   1.1455200   1.6199391   2.6871645  )
       352           H   tau( 352) = (   1.0161941   1.6793359   2.7147664  )
       353           O   tau( 353) = (   0.5509062   1.9506141   2.7240487  )
       354           H   tau( 354) = (   0.4563109   1.9108964   2.7275437  )
       355           H   tau( 355) = (   0.6109072   1.8875763   2.7710952  )
       356           O   tau( 356) = (   0.2683701   0.0280852   2.9781115  )
       357           H   tau( 357) = (   0.2797541  -0.0205358   2.8952956  )
       358           H   tau( 358) = (   0.2568778   0.1121189   2.9378313  )
       359           O   tau( 359) = (   1.0539376   0.9138346   2.6181366  )
       360           H   tau( 360) = (   1.1481454   0.8894309   2.5986189  )
       361           H   tau( 361) = (   1.0242887   0.9309874   2.5264916  )
       362           O   tau( 362) = (   0.6750858  -0.4520173  -0.0611261  )
       363           H   tau( 363) = (   0.7050680  -0.3652390  -0.0552928  )
       364           H   tau( 364) = (   0.7519479  -0.5019131  -0.1036649  )
       365           O   tau( 365) = (   0.5247004   0.5151884   2.1941498  )
       366           H   tau( 366) = (   0.4804030   0.4930757   2.1094067  )
       367           H   tau( 367) = (   0.5117422   0.4354635   2.2512130  )
       368           O   tau( 368) = (   0.8248774   0.5242785  -0.0011696  )
       369           H   tau( 369) = (   0.8487236   0.4999957  -0.0879388  )
       370           H   tau( 370) = (   0.7987028   0.6174547   0.0000484  )
       371           O   tau( 371) = (   0.4726428   1.5062138   2.7588596  )
       372           H   tau( 372) = (   0.5517031   1.5304975   2.6931080  )
       373           H   tau( 373) = (   0.4901259   1.5625686   2.8372687  )
       374           O   tau( 374) = (   0.9618760   0.9254764   2.3733195  )
       375           H   tau( 375) = (   1.0478589   0.9100216   2.3166782  )
       376           H   tau( 376) = (   0.9374099   1.0153190   2.3516245  )
       377           O   tau( 377) = (   0.1971257   0.1038186   3.3033380  )
       378           H   tau( 378) = (   0.1489108   0.1682873   3.3648964  )
       379           H   tau( 379) = (   0.2074997   0.1522231   3.2226682  )
       380           O   tau( 380) = (   0.5948586   1.3322217   2.4745956  )
       381           H   tau( 381) = (   0.5893581   1.3019478   2.3878783  )
       382           H   tau( 382) = (   0.6280913   1.2512915   2.5213661  )
       383           O   tau( 383) = (   0.3890940   0.3124814   2.5857790  )
       384           H   tau( 384) = (   0.3373178   0.3778867   2.5306275  )
       385           H   tau( 385) = (   0.3215693   0.2466131   2.6168135  )
       386           O   tau( 386) = (   0.6070109   0.9251586   2.7081980  )
       387           H   tau( 387) = (   0.6882330   0.8744919   2.6933267  )
       388           H   tau( 388) = (   0.5338263   0.8613395   2.7102763  )
       389           O   tau( 389) = (   0.6719448   1.9648552   2.4825600  )
       390           H   tau( 390) = (   0.6398894   1.9645479   2.5799712  )
       391           H   tau( 391) = (   0.7185277   2.0480201   2.4828204  )
       392           O   tau( 392) = (   0.1983071   0.4177580   3.1170791  )
       393           H   tau( 393) = (   0.1395957   0.4401686   3.0411597  )
       394           H   tau( 394) = (   0.1467527   0.4602384   3.1918941  )
       395           O   tau( 395) = (   1.2881234  -0.2436576   0.1734571  )
       396           H   tau( 396) = (   1.2198819  -0.2459620   0.1016273  )
       397           H   tau( 397) = (   1.2450773  -0.2093530   0.2549968  )
       398           O   tau( 398) = (   0.9355972   0.3850458   2.9785282  )
       399           H   tau( 399) = (   0.8931136   0.3320871   3.0464519  )
       400           H   tau( 400) = (   0.8620948   0.4321017   2.9243091  )
       401           O   tau( 401) = (   1.1333105   1.7024164  -0.2385336  )
       402           H   tau( 402) = (   1.1418894   1.7033332  -0.3382758  )
       403           H   tau( 403) = (   1.0677984   1.7647615  -0.2150609  )
       404           O   tau( 404) = (   0.9199497   1.9063074   3.0201731  )
       405           H   tau( 405) = (   0.9524531   1.9630008   2.9468009  )
       406           H   tau( 406) = (   0.8394466   1.9404411   3.0656310  )
       407           O   tau( 407) = (   0.3285998   1.7452646   2.4900920  )
       408           H   tau( 408) = (   0.4070319   1.7020205   2.4587972  )
       409           H   tau( 409) = (   0.3454911   1.8058074   2.5628548  )
       410           O   tau( 410) = (   0.4235726   0.3857115   2.9072291  )
       411           H   tau( 411) = (   0.4481981   0.3538263   2.9962331  )
       412           H   tau( 412) = (   0.4740461   0.3285357   2.8450299  )
       413           O   tau( 413) = (   0.8380350   1.8606152   2.2183606  )
       414           H   tau( 414) = (   0.8518906   1.9468637   2.1687357  )
       415           H   tau( 415) = (   0.9244502   1.8188505   2.2200952  )
       416           O   tau( 416) = (   0.8703039   1.1498955   0.1560824  )
       417           H   tau( 417) = (   0.8334460   1.1543178   0.0666126  )
       418           H   tau( 418) = (   0.8545679   1.0552867   0.1856479  )
       419           O   tau( 419) = (   0.3092259   1.1400143   3.2003012  )
       420           H   tau( 420) = (   0.2835712   1.0470724   3.2189751  )
       421           H   tau( 421) = (   0.2442441   1.1898632   3.2458737  )
       422           O   tau( 422) = (   0.3701020   1.9792369   2.1235123  )
       423           H   tau( 423) = (   0.4237076   1.9902276   2.0444728  )
       424           H   tau( 424) = (   0.3500327   1.8827477   2.1330081  )
       425           O   tau( 425) = (   0.4856062   0.6563651   2.5671104  )
       426           H   tau( 426) = (   0.4005672   0.6365765   2.5288617  )
       427           H   tau( 427) = (   0.4683653   0.6881757   2.6568906  )
       428           O   tau( 428) = (  -0.0783457   1.5557919   2.3165375  )
       429           H   tau( 429) = (  -0.0517188   1.4918113   2.3815756  )
       430           H   tau( 430) = (  -0.0061786   1.6277577   2.3265594  )
       431           O   tau( 431) = (   0.8836803   1.3403580   2.1565313  )
       432           H   tau( 432) = (   0.9636834   1.3888578   2.1371074  )
       433           H   tau( 433) = (   0.8861858   1.2779401   2.0818725  )
       434           O   tau( 434) = (   0.4645488   2.0826799   2.3320131  )
       435           H   tau( 435) = (   0.5132268   2.0072918   2.3645060  )
       436           H   tau( 436) = (   0.4234820   2.0549948   2.2458322  )
       437           O   tau( 437) = (   0.5238982   0.8986142   3.0574010  )
       438           H   tau( 438) = (   0.5030475   0.8862379   2.9642142  )
       439           H   tau( 439) = (   0.4374689   0.8912540   3.1007701  )
       440           O   tau( 440) = (   0.2805615   1.9201058   2.7061145  )
       441           H   tau( 441) = (   0.2078138   1.8515517   2.6906337  )
       442           H   tau( 442) = (   0.2626439   2.0008537   2.6408525  )
       443           O   tau( 443) = (   0.5302426   0.3378060   3.1477072  )
       444           H   tau( 444) = (   0.4830336   0.3064626   3.2276374  )
       445           H   tau( 445) = (   0.5129184   0.4418246   3.1634484  )
       446           O   tau( 446) = (   1.0351856   0.4828345   3.3344454  )
       447           H   tau( 447) = (   0.9458795   0.5078678   3.2973322  )
       448           H   tau( 448) = (   1.0585579   0.5659703   3.3799918  )
       449           O   tau( 449) = (   0.6068391   1.2430926   2.2152458  )
       450           H   tau( 450) = (   0.5264037   1.2915509   2.1920298  )
       451           H   tau( 451) = (   0.6695383   1.2990360   2.1669282  )
       452           O   tau( 452) = (   0.8888475   1.5231738   2.7609222  )
       453           H   tau( 453) = (   0.7951451   1.5301486   2.7362530  )
       454           H   tau( 454) = (   0.8874776   1.4932802   2.8582500  )
       455           O   tau( 455) = (   0.5452911   1.2264973   3.4153705  )
       456           H   tau( 456) = (   0.5866703   1.3155846   3.4040620  )
       457           H   tau( 457) = (   0.5114557   1.2011404   3.3269914  )
       458           O   tau( 458) = (   0.6913843   1.4517602   3.4030984  )
       459           H   tau( 459) = (   0.7715020   1.3882380   3.4160216  )
       460           H   tau( 460) = (   0.6832637   1.4645845   3.3031869  )
       461           O   tau( 461) = (   0.6014115   1.6999892   2.4154280  )
       462           H   tau( 462) = (   0.6329043   1.6578181   2.3312318  )
       463           H   tau( 463) = (   0.6257421   1.7990514   2.4111672  )
       464           O   tau( 464) = (   0.4072673   0.5523543   3.1960769  )
       465           H   tau( 465) = (   0.3350333   0.4980007   3.1514993  )
       466           H   tau( 466) = (   0.3918610   0.5265234   3.2906336  )
       467           O   tau( 467) = (   0.9578860   1.3842948   2.5270073  )
       468           H   tau( 468) = (   0.9219499   1.4343938   2.6112973  )
       469           H   tau( 469) = (   0.9255128   1.3006247   2.5323829  )
       470           O   tau( 470) = (   0.3999004   1.4874097   2.2448790  )
       471           H   tau( 471) = (   0.4921314   1.4858107   2.2876544  )
       472           H   tau( 472) = (   0.3377997   1.4663763   2.3138602  )
       473           O   tau( 473) = (   0.7917281   0.5486559   2.8109639  )
       474           H   tau( 474) = (   0.7776746   0.5455411   2.7078698  )
       475           H   tau( 475) = (   0.8769401   0.5997289   2.8233975  )
       476           O   tau( 476) = (  -0.0226650   1.1017499   2.8074166  )
       477           H   tau( 477) = (   0.0406618   1.0703508   2.7389981  )
       478           H   tau( 478) = (   0.0201326   1.1892538   2.8435455  )
       479           O   tau( 479) = (   0.7556826   0.5558025   2.2954520  )
       480           H   tau( 480) = (   0.7808102   0.6464630   2.2627455  )
       481           H   tau( 481) = (   0.6708978   0.5280549   2.2320236  )
       482           O   tau( 482) = (   1.1383526   1.2584120   0.1544072  )
       483           H   tau( 483) = (   1.0444106   1.2228771   0.1532336  )
       484           H   tau( 484) = (   1.1273983   1.3601674   0.1644733  )
       485           O   tau( 485) = (   0.7709134   0.7979267  -0.0339742  )
       486           H   tau( 486) = (   0.6802738   0.8089069  -0.0405950  )
       487           H   tau( 487) = (   0.8086257   0.8367953  -0.1173007  )
       488           O   tau( 488) = (   0.5504739   0.3244525   2.3592659  )
       489           H   tau( 489) = (   0.5229293   0.2322319   2.3386179  )
       490           H   tau( 490) = (   0.4751749   0.3440279   2.4154645  )
       491           O   tau( 491) = (   1.3142147   0.4676934   3.4533171  )
       492           H   tau( 492) = (   1.3855189   0.3960708   3.4687822  )
       493           H   tau( 493) = (   1.3570108   0.5491560   3.4901178  )
       494           O   tau( 494) = (   0.7391757   1.1712675   2.6562759  )
       495           H   tau( 495) = (   0.8293049   1.1716270   2.6988533  )
       496           H   tau( 496) = (   0.7012655   1.0852065   2.6879407  )
       497           O   tau( 497) = (   0.3504869   1.1886599   2.4500619  )
       498           H   tau( 498) = (   0.3287341   1.1756377   2.5475407  )
       499           H   tau( 499) = (   0.4161635   1.1183350   2.4276481  )
       500           O   tau( 500) = (   0.7461244   0.2102687   2.5208192  )
       501           H   tau( 501) = (   0.6686632   0.2576742   2.4852999  )
       502           H   tau( 502) = (   0.7198977   0.2089998   2.6201472  )
       503           O   tau( 503) = (   0.4871386  -0.0144584  -0.0773653  )
       504           H   tau( 504) = (   0.4697717  -0.0436219   0.0134994  )
       505           H   tau( 505) = (   0.4095681  -0.0350072  -0.1267345  )
       506           O   tau( 506) = (  -0.4002463   2.2249030   2.8145059  )
       507           H   tau( 507) = (  -0.3840805   2.2029008   2.9096721  )
       508           H   tau( 508) = (  -0.4693519   2.1649645   2.7880136  )
       509           O   tau( 509) = (   0.4728236   0.2541233   3.4390187  )
       510           H   tau( 510) = (   0.5667203   0.2234378   3.4305856  )
       511           H   tau( 511) = (   0.4302947   0.1659563   3.4347475  )
       512           O   tau( 512) = (   0.4397540  -0.0333678   0.2070069  )
       513           H   tau( 513) = (   0.3777507  -0.1075893   0.1878399  )
       514           H   tau( 514) = (   0.5103791  -0.0820893   0.2553973  )
       515           O   tau( 515) = (   0.2613829   2.1154854   2.5066250  )
       516           H   tau( 516) = (   0.3317256   2.1039113   2.4389617  )
       517           H   tau( 517) = (   0.1737936   2.1126049   2.4623913  )
       518           O   tau( 518) = (   0.3210600   1.1914102   0.3297509  )
       519           H   tau( 519) = (   0.4091738   1.2099018   0.2904323  )
       520           H   tau( 520) = (   0.2490087   1.2403008   0.2851822  )
       521           O   tau( 521) = (   0.1942181   0.5413271   2.8570208  )
       522           H   tau( 522) = (   0.2754057   0.4809140   2.8533797  )
       523           H   tau( 523) = (   0.1597103   0.5688143   2.7605733  )
       524           O   tau( 524) = (   0.7071620   1.8370659  -0.0487318  )
       525           H   tau( 525) = (   0.7109957   1.8254657   0.0494087  )
       526           H   tau( 526) = (   0.6300811   1.8975929  -0.0668028  )
       527           O   tau( 527) = (   0.3080497   0.8499268   2.6729704  )
       528           H   tau( 528) = (   0.3067272   0.9393841   2.7123078  )
       529           H   tau( 529) = (   0.2667782   0.7902487   2.7372115  )
       530           O   tau( 530) = (   0.7434887  -0.2424013  -0.4059370  )
       531           H   tau( 531) = (   0.8051045  -0.1941707  -0.4547118  )
       532           H   tau( 532) = (   0.7652357  -0.2133029  -0.3121251  )
       533           O   tau( 533) = (   0.1423054  -0.5234555   3.4268456  )
       534           H   tau( 534) = (   0.0896880  -0.5094363   3.5061611  )
       535           H   tau( 535) = (   0.2335857  -0.5142649   3.4547808  )
       536           O   tau( 536) = (  -0.2184144   1.7971086   0.1984680  )
       537           H   tau( 537) = (  -0.1326091   1.8353001   0.1749150  )
       538           H   tau( 538) = (  -0.2278757   1.8139436   0.2901155  )
       539           O   tau( 539) = (   0.2340758   1.4709549   2.6652717  )
       540           H   tau( 540) = (   0.2236336   1.4095214   2.5873521  )
       541           H   tau( 541) = (   0.3241613   1.4997443   2.6806275  )
       542           O   tau( 542) = (   0.0968475   0.2678690   2.7486137  )
       543           H   tau( 543) = (   0.1879612   0.2831753   2.7683657  )
       544           H   tau( 544) = (   0.0481133   0.3089186   2.8199284  )
       545           O   tau( 545) = (   0.9660900   0.3940138   2.5397690  )
       546           H   tau( 546) = (   0.8819875   0.3686258   2.5721630  )
       547           H   tau( 547) = (   1.0305498   0.3469761   2.6001608  )
       548           O   tau( 548) = (   0.4278945   0.7694237   2.2764344  )
       549           H   tau( 549) = (   0.4615969   0.7577193   2.3676887  )
       550           H   tau( 550) = (   0.4303207   0.6770600   2.2471189  )
       551           O   tau( 551) = (  -0.3026351   0.1530987   3.0774083  )
       552           H   tau( 552) = (  -0.3620058   0.0844624   3.1033067  )
       553           H   tau( 553) = (  -0.3249041   0.2372324   3.1184698  )
       554           O   tau( 554) = (   0.1130461   0.7570838   0.1631096  )
       555           H   tau( 555) = (   0.1778257   0.7759660   0.2295796  )
       556           H   tau( 556) = (   0.1622586   0.7788622   0.0804604  )
       557           O   tau( 557) = (   0.1551333   0.7866703  -0.2672091  )
       558           H   tau( 558) = (   0.1453255   0.6915197  -0.2908480  )
       559           H   tau( 559) = (   0.0595353   0.8138814  -0.2668444  )
       560           O   tau( 560) = (   0.2045515   1.3896080   2.3591045  )
       561           H   tau( 561) = (   0.2600676   1.3060420   2.3664438  )
       562           H   tau( 562) = (   0.1351739   1.3838104   2.4257468  )
       563           O   tau( 563) = (   0.2527539   0.5530314   2.4592243  )
       564           H   tau( 564) = (   0.1925742   0.5997550   2.5270490  )
       565           H   tau( 565) = (   0.2221683   0.5950618   2.3779189  )
       566           O   tau( 566) = (   0.7778725   0.7901394   2.5806483  )
       567           H   tau( 567) = (   0.7609228   0.6962650   2.5477856  )
       568           H   tau( 568) = (   0.8575422   0.8370349   2.5508692  )
       569           O   tau( 569) = (   1.0707363   0.6369776   2.6432121  )
       570           H   tau( 570) = (   1.0493694   0.7310030   2.6402274  )
       571           H   tau( 571) = (   1.0093913   0.5736273   2.5961291  )
       572           O   tau( 572) = (   0.8707415   1.1483068   2.3494055  )
       573           H   tau( 573) = (   0.7821282   1.1539064   2.3915037  )
       574           H   tau( 574) = (   0.8735334   1.2238876   2.2930976  )
       575           O   tau( 575) = (   0.9554691   0.4131330   2.2676262  )
       576           H   tau( 576) = (   0.8679339   0.4562511   2.2668709  )
       577           H   tau( 577) = (   0.9663139   0.4160822   2.3594327  )
       578           O   tau( 578) = (  -0.0928930   0.2013735   3.2111201  )
       579           H   tau( 579) = (  -0.0060121   0.1625513   3.2099168  )
       580           H   tau( 580) = (  -0.1633514   0.1488988   3.1644902  )
       581           O   tau( 581) = (  -0.0824664   1.8639176   2.5706525  )
       582           H   tau( 582) = (  -0.0137607   1.8290442   2.5082919  )
       583           H   tau( 583) = (  -0.1690852   1.8618497   2.5257416  )
       584           O   tau( 584) = (   0.5262526   1.2356856   2.7996450  )
       585           H   tau( 585) = (   0.5103009   1.3299195   2.7884303  )
       586           H   tau( 586) = (   0.6144336   1.2187464   2.7677563  )

     number of k points=     4  Gaussian smearing, width (Ry)=  0.0100
                       cart. coord. in units 2pi/alat
        k(    1) = (   0.1250000   0.1237152  -0.1555457), wk =   0.5000000
        k(    2) = (   0.3750000   0.1237152  -0.1555457), wk =   0.5000000
        k(    3) = (  -0.1250000   0.1237152   0.1555457), wk =   0.5000000
        k(    4) = (  -0.3750000   0.1237152   0.1555457), wk =   0.5000000

     Dense  grid:  6209049 G-vectors     FFT dimensions: ( 125, 250, 400)

     Smooth grid:  1570761 G-vectors     FFT dimensions: (  80, 160, 250)

     Estimated max dynamical RAM per process >      16.83 GB

     Estimated total dynamical RAM >     134.64 GB

     Initial potential from superposition of free atoms

     starting charge 2550.78310, renormalised to 2552.00000
     Starting wfcs are 2040 randomized atomic wfcs

     total cpu time spent up to now is       34.1 secs

     Self-consistent Calculation

     iteration #  1     ecut=    40.00 Ry     beta= 0.30
     Davidson diagonalization with overlap
     ethr =  1.00E-02,  avg # of iterations =  3.0

     total cpu time spent up to now is       57.6 secs

     total energy              =  -12916.59955502 Ry
     estimated scf accuracy    <      56.18466119 Ry

     iteration #  2     ecut=    40.00 Ry     beta= 0.30
     Davidson diagonalization with overlap
     ethr =  2.20E-03,  avg # of iterations =  3.8

     total cpu time spent up to now is       80.2 secs

     total energy              =  -12914.88407175 Ry
     estimated scf accuracy    <      44.27698127 Ry

     iteration #  3     ecut=    40.00 Ry     beta= 0.30
     Davidson diagonalization with overlap
     ethr =  1.73E-03,  avg # of iterations =  3.0

     total cpu time spent up to now is      100.4 secs

     total energy              =  -12902.54061454 Ry
     estimated scf accuracy    <     408.91931766 Ry

     iteration #  4     ecut=    40.00 Ry     beta= 0.30
     Davidson diagonalization with overlap
     ethr =  1.73E-03,  avg # of iterations =  8.0

     negative rho (up, down):  1.140E-07 0.000E+00

     total cpu time spent up to now is      125.8 secs

     total energy              =  -12907.63521810 Ry
     estimated scf accuracy    <     452.88545407 Ry

     iteration #  5     ecut=    40.00 Ry     beta= 0.30
     Davidson diagonalization with overlap
     ethr =  1.73E-03,  avg # of iterations =  4.0

     negative rho (up, down):  3.738E-07 0.000E+00

     total cpu time spent up to now is      146.4 secs

     total energy              =  -12917.75230162 Ry
     estimated scf accuracy    <     135.19976007 Ry

     iteration #  6     ecut=    40.00 Ry     beta= 0.30
     Davidson diagonalization with overlap
     ethr =  1.73E-03,  avg # of iterations =  2.5

     negative rho (up, down):  6.791E-07 0.000E+00

     total cpu time spent up to now is      165.3 secs

     total energy              =  -12923.01564836 Ry
     estimated scf accuracy    <      12.59973188 Ry

     iteration #  7     ecut=    40.00 Ry     beta= 0.30
     Davidson diagonalization with overlap
     ethr =  4.94E-04,  avg # of iterations =  9.5

     negative rho (up, down):  1.380E-06 0.000E+00

     total cpu time spent up to now is      189.7 secs

     total energy              =  -12923.37560389 Ry
     estimated scf accuracy    <       8.10855990 Ry

     iteration #  8     ecut=    40.00 Ry     beta= 0.30
     Davidson diagonalization with overlap
     ethr =  3.18E-04,  avg # of iterations =  2.5

     negative rho (up, down):  2.777E-06 0.000E+00

     total cpu time spent up to now is      208.6 secs

     total energy              =  -12923.57230428 Ry
     estimated scf accuracy    <       2.85326281 Ry

     iteration #  9     ecut=    40.00 Ry     beta= 0.30
     Davidson diagonalization with overlap
     ethr =  1.12E-04,  avg # of iterations = 13.3

     negative rho (up, down):  5.000E-06 0.000E+00

     total cpu time spent up to now is      235.7 secs

     total energy              =  -12923.47058276 Ry
     estimated scf accuracy    <       3.15772395 Ry

     iteration # 10     ecut=    40.00 Ry     beta= 0.30
     Davidson diagonalization with overlap
     ethr =  1.12E-04,  avg # of iterations =  2.8

     negative rho (up, down):  8.888E-06 0.000E+00

     total cpu time spent up to now is      255.0 secs

     total energy              =  -12923.51319631 Ry
     estimated scf accuracy    <       2.74136752 Ry

     iteration # 11     ecut=    40.00 Ry     beta= 0.30
     Davidson diagonalization with overlap
     ethr =  1.07E-04,  avg # of iterations =  2.0

     negative rho (up, down):  1.174E-05 0.000E+00

     total cpu time spent up to now is      273.5 secs

     total energy              =  -12923.64309417 Ry
     estimated scf accuracy    <       0.60581052 Ry

     iteration # 12     ecut=    40.00 Ry     beta= 0.30
     Davidson diagonalization with overlap
     ethr =  2.37E-05,  avg # of iterations = 18.8

     negative rho (up, down):  1.397E-05 0.000E+00

     total cpu time spent up to now is      306.8 secs

     total energy              =  -12923.67455306 Ry
     estimated scf accuracy    <       0.26140061 Ry

     iteration # 13     ecut=    40.00 Ry     beta= 0.30
     Davidson diagonalization with overlap
     ethr =  1.02E-05,  avg # of iterations =  2.3

     negative rho (up, down):  1.484E-05 0.000E+00

     total cpu time spent up to now is      325.5 secs

     total energy              =  -12923.66576238 Ry
     estimated scf accuracy    <       0.07277990 Ry

     iteration # 14     ecut=    40.00 Ry     beta= 0.30
     Davidson diagonalization with overlap
     ethr =  2.85E-06,  avg # of iterations = 17.5

     negative rho (up, down):  1.527E-05 0.000E+00

     total cpu time spent up to now is      364.0 secs

     total energy              =  -12923.65123001 Ry
     estimated scf accuracy    <       0.47319474 Ry

     iteration # 15     ecut=    40.00 Ry     beta= 0.30
     Davidson diagonalization with overlap
     c_bands:  1 eigenvalues not converged
     c_bands:  1 eigenvalues not converged
     c_bands:  1 eigenvalues not converged
     ethr =  2.85E-06,  avg # of iterations = 20.0

     negative rho (up, down):  1.561E-05 0.000E+00

     total cpu time spent up to now is      398.6 secs

     total energy              =  -12923.67443973 Ry
     estimated scf accuracy    <       0.07127261 Ry

     iteration # 16     ecut=    40.00 Ry     beta= 0.30
     Davidson diagonalization with overlap
     ethr =  2.79E-06,  avg # of iterations = 13.3

     negative rho (up, down):  1.537E-05 0.000E+00

     total cpu time spent up to now is      424.5 secs

     total energy              =  -12923.67773182 Ry
     estimated scf accuracy    <       0.00577077 Ry

     iteration # 17     ecut=    40.00 Ry     beta= 0.30
     Davidson diagonalization with overlap
     ethr =  2.26E-07,  avg # of iterations = 11.5

     negative rho (up, down):  1.550E-05 0.000E+00

     total cpu time spent up to now is      449.4 secs

     total energy              =  -12923.67737662 Ry
     estimated scf accuracy    <       0.01477560 Ry

     iteration # 18     ecut=    40.00 Ry     beta= 0.30
     Davidson diagonalization with overlap
     ethr =  2.26E-07,  avg # of iterations =  6.3

     negative rho (up, down):  1.549E-05 0.000E+00

     total cpu time spent up to now is      470.4 secs

     total energy              =  -12923.67804048 Ry
     estimated scf accuracy    <       0.00613860 Ry

     iteration # 19     ecut=    40.00 Ry     beta= 0.30
     Davidson diagonalization with overlap
     ethr =  2.26E-07,  avg # of iterations = 10.8

     negative rho (up, down):  1.539E-05 0.000E+00

     total cpu time spent up to now is      495.1 secs

     total energy              =  -12923.67827598 Ry
     estimated scf accuracy    <       0.00175853 Ry

     iteration # 20     ecut=    40.00 Ry     beta= 0.30
     Davidson diagonalization with overlap
     ethr =  6.89E-08,  avg # of iterations =  1.5

     negative rho (up, down):  1.530E-05 0.000E+00

     total cpu time spent up to now is      513.1 secs

     total energy              =  -12923.67828126 Ry
     estimated scf accuracy    <       0.00213356 Ry

     iteration # 21     ecut=    40.00 Ry     beta= 0.30
     Davidson diagonalization with overlap
     ethr =  6.89E-08,  avg # of iterations =  2.0

     negative rho (up, down):  1.522E-05 0.000E+00

     total cpu time spent up to now is      531.5 secs

     total energy              =  -12923.67835745 Ry
     estimated scf accuracy    <       0.00089379 Ry

     iteration # 22     ecut=    40.00 Ry     beta= 0.30
     Davidson diagonalization with overlap
     ethr =  3.50E-08,  avg # of iterations =  1.3

     negative rho (up, down):  1.519E-05 0.000E+00

     total cpu time spent up to now is      549.1 secs

     total energy              =  -12923.67840060 Ry
     estimated scf accuracy    <       0.00025946 Ry

     iteration # 23     ecut=    40.00 Ry     beta= 0.30
     Davidson diagonalization with overlap
     ethr =  1.02E-08,  avg # of iterations =  1.8

     negative rho (up, down):  1.513E-05 0.000E+00

     total cpu time spent up to now is      567.3 secs

     total energy              =  -12923.67842169 Ry
     estimated scf accuracy    <       0.00012808 Ry

     iteration # 24     ecut=    40.00 Ry     beta= 0.30
     Davidson diagonalization with overlap
     ethr =  5.02E-09,  avg # of iterations =  1.0

     negative rho (up, down):  1.510E-05 0.000E+00

     total cpu time spent up to now is      584.6 secs

     total energy              =  -12923.67842853 Ry
     estimated scf accuracy    <       0.00002983 Ry

     iteration # 25     ecut=    40.00 Ry     beta= 0.30
     Davidson diagonalization with overlap
     ethr =  1.17E-09,  avg # of iterations =  4.0

     negative rho (up, down):  1.509E-05 0.000E+00

     total cpu time spent up to now is      604.7 secs

     total energy              =  -12923.67842961 Ry
     estimated scf accuracy    <       0.00007710 Ry

     iteration # 26     ecut=    40.00 Ry     beta= 0.30
     Davidson diagonalization with overlap
     ethr =  1.17E-09,  avg # of iterations =  1.5

     negative rho (up, down):  1.507E-05 0.000E+00

     total cpu time spent up to now is      622.6 secs

     total energy              =  -12923.67843336 Ry
     estimated scf accuracy    <       0.00001541 Ry

     iteration # 27     ecut=    40.00 Ry     beta= 0.30
     Davidson diagonalization with overlap
     ethr =  6.04E-10,  avg # of iterations =  2.0

     negative rho (up, down):  1.507E-05 0.000E+00

     total cpu time spent up to now is      642.6 secs

     total energy              =  -12923.67843402 Ry
     estimated scf accuracy    <       0.00001014 Ry

     iteration # 28     ecut=    40.00 Ry     beta= 0.30
     Davidson diagonalization with overlap
     ethr =  3.97E-10,  avg # of iterations =  2.0

     negative rho (up, down):  1.506E-05 0.000E+00

     total cpu time spent up to now is      661.1 secs

     total energy              =  -12923.67843466 Ry
     estimated scf accuracy    <       0.00001078 Ry

     iteration # 29     ecut=    40.00 Ry     beta= 0.30
     Davidson diagonalization with overlap
     ethr =  3.97E-10,  avg # of iterations =  1.0

     negative rho (up, down):  1.506E-05 0.000E+00

     total cpu time spent up to now is      678.5 secs

     total energy              =  -12923.67843524 Ry
     estimated scf accuracy    <       0.00000380 Ry

     iteration # 30     ecut=    40.00 Ry     beta= 0.30
     Davidson diagonalization with overlap
     ethr =  1.49E-10,  avg # of iterations =  2.5

     negative rho (up, down):  1.505E-05 0.000E+00

     total cpu time spent up to now is      699.5 secs

     total energy              =  -12923.67843566 Ry
     estimated scf accuracy    <       0.00000382 Ry

     iteration # 31     ecut=    40.00 Ry     beta= 0.30
     Davidson diagonalization with overlap
     ethr =  1.49E-10,  avg # of iterations =  1.0

     negative rho (up, down):  1.505E-05 0.000E+00

     total cpu time spent up to now is      716.9 secs

     total energy              =  -12923.67843591 Ry
     estimated scf accuracy    <       0.00000113 Ry

     iteration # 32     ecut=    40.00 Ry     beta= 0.30
     Davidson diagonalization with overlap
     ethr =  4.44E-11,  avg # of iterations =  5.0

     negative rho (up, down):  1.505E-05 0.000E+00

     total cpu time spent up to now is      742.1 secs

     total energy              =  -12923.67843626 Ry
     estimated scf accuracy    <       0.00000040 Ry

     iteration # 33     ecut=    40.00 Ry     beta= 0.30
     Davidson diagonalization with overlap
     ethr =  1.56E-11,  avg # of iterations =  1.0

     negative rho (up, down):  1.505E-05 0.000E+00

     total cpu time spent up to now is      759.5 secs

     total energy              =  -12923.67843628 Ry
     estimated scf accuracy    <       0.00000027 Ry

     iteration # 34     ecut=    40.00 Ry     beta= 0.30
     Davidson diagonalization with overlap
     ethr =  1.04E-11,  avg # of iterations =  1.0

     negative rho (up, down):  1.505E-05 0.000E+00

     total cpu time spent up to now is      776.9 secs

     total energy              =  -12923.67843629 Ry
     estimated scf accuracy    <       0.00000009 Ry

     iteration # 35     ecut=    40.00 Ry     beta= 0.30
     Davidson diagonalization with overlap
     ethr =  3.55E-12,  avg # of iterations =  1.0

     negative rho (up, down):  1.505E-05 0.000E+00

     total cpu time spent up to now is      794.2 secs

     total energy              =  -12923.67843628 Ry
     estimated scf accuracy    <       0.00000016 Ry

     iteration # 36     ecut=    40.00 Ry     beta= 0.30
     Davidson diagonalization with overlap
     ethr =  3.55E-12,  avg # of iterations =  1.0

     negative rho (up, down):  1.505E-05 0.000E+00

     total cpu time spent up to now is      811.6 secs

     total energy              =  -12923.67843629 Ry
     estimated scf accuracy    <       0.00000017 Ry

     iteration # 37     ecut=    40.00 Ry     beta= 0.30
     Davidson diagonalization with overlap
     ethr =  3.55E-12,  avg # of iterations =  1.0

     negative rho (up, down):  1.505E-05 0.000E+00

     total cpu time spent up to now is      828.9 secs

     total energy              =  -12923.67843629 Ry
     estimated scf accuracy    <       0.00000003 Ry

     iteration # 38     ecut=    40.00 Ry     beta= 0.30
     Davidson diagonalization with overlap
     ethr =  1.06E-12,  avg # of iterations =  1.0

     negative rho (up, down):  1.505E-05 0.000E+00

     total cpu time spent up to now is      846.2 secs

     total energy              =  -12923.67843630 Ry
     estimated scf accuracy    <       0.00000006 Ry

     iteration # 39     ecut=    40.00 Ry     beta= 0.30
     Davidson diagonalization with overlap
     ethr =  1.06E-12,  avg # of iterations =  1.0

     negative rho (up, down):  1.506E-05 0.000E+00

     total cpu time spent up to now is      865.8 secs

     total energy              =  -12923.67843630 Ry
     estimated scf accuracy    <       0.00000001 Ry

     iteration # 40     ecut=    40.00 Ry     beta= 0.30
     Davidson diagonalization with overlap
     ethr =  4.96E-13,  avg # of iterations =  1.0

     negative rho (up, down):  1.506E-05 0.000E+00

     total cpu time spent up to now is      883.2 secs

     total energy              =  -12923.67843630 Ry
     estimated scf accuracy    <       0.00000001 Ry

     iteration # 41     ecut=    40.00 Ry     beta= 0.30
     Davidson diagonalization with overlap
     ethr =  4.96E-13,  avg # of iterations =  1.0

     negative rho (up, down):  1.506E-05 0.000E+00

     total cpu time spent up to now is      900.6 secs

     End of self-consistent calculation

          k = 0.1250 0.1237-0.1555 (196378 PWs)   bands (ev):

   -18.3725 -18.2003 -18.0991 -17.9035 -17.7340 -17.7125 -17.6876 -17.6809
   -17.6196 -17.5847 -17.5501 -17.4584 -17.4318 -17.4152 -17.3992 -17.3568
   -17.3507 -17.3250 -17.2763 -17.2520 -17.2309 -17.1966 -17.1589 -17.1352
   -17.1004 -17.0984 -17.0844 -17.0629 -17.0358 -17.0218 -16.9245 -16.9053
   -16.8892 -16.8726 -16.8666 -16.8521 -16.8501 -16.8414 -16.8330 -16.7988
   -16.7772 -16.7672 -16.7412 -16.7391 -16.7305 -16.7103 -16.6965 -16.6715
   -16.6448 -16.6333 -16.6050 -16.5981 -16.5930 -16.5693 -16.5359 -16.5249
   -16.5207 -16.5156 -16.5003 -16.4885 -16.4841 -16.4768 -16.4656 -16.4244
   -16.3982 -16.3872 -16.3762 -16.3734 -16.3593 -16.3176 -16.3067 -16.2886
   -16.2860 -16.2791 -16.2708 -16.2580 -16.2535 -16.2428 -16.2406 -16.2203
   -16.2123 -16.2032 -16.1865 -16.1780 -16.1729 -16.1549 -16.1536 -16.1407
   -16.1325 -16.1203 -16.1090 -16.0924 -16.0395 -16.0297 -15.9621 -15.9583
   -15.9347 -15.9234 -15.9050 -15.8979 -15.8914 -15.8672 -15.8496 -15.8426
   -15.8308 -15.8211 -15.7818 -15.7789 -15.7616 -15.7546 -15.6711 -15.6650
   -15.6408 -15.6318 -15.6291 -15.6143 -15.6007 -15.5961 -15.5597 -15.5361
   -15.5235 -15.5135 -15.5015 -15.4670 -15.4596 -15.4498 -15.4207 -15.3943
   -15.3729 -15.3536 -15.3456 -15.3353 -15.3305 -15.3179 -15.2760 -15.2155
   -15.2036 -15.1830 -15.1578 -15.1275 -15.1234 -14.9971 -14.9790 -14.9688
   -14.9223 -14.7897 -14.7010 -14.3592 -14.3459 -14.2772 -11.6847 -11.4143
   -11.2014 -11.0777 -10.8420 -10.7625 -10.3782 -10.2671  -9.9594  -9.8973
    -9.5810  -9.4514  -8.3052  -8.2521  -8.0051  -7.9401  -7.8620  -7.7553
    -7.7309  -7.6513  -7.5076  -7.3645  -7.1127  -6.9683  -6.7737  -6.5572
    -6.5112  -6.4516  -6.2918  -6.2367  -6.1141  -6.0385  -5.9549  -5.8530
    -5.7938  -5.7486  -5.6395  -5.5484  -5.5225  -5.4772  -5.4270  -5.3055
    -5.2487  -5.1854  -5.1085  -5.0877  -5.0456  -5.0229  -5.0211  -5.0081
    -4.9780  -4.9476  -4.8763  -4.8743  -4.8484  -4.8283  -4.8193  -4.8033
    -4.7803  -4.7546  -4.7184  -4.7001  -4.6853  -4.6589  -4.6268  -4.6032
    -4.5972  -4.5908  -4.5789  -4.5706  -4.5378  -4.5129  -4.4978  -4.4911
    -4.4830  -4.4764  -4.4598  -4.4450  -4.4379  -4.4315  -4.4205  -4.4055
    -4.4017  -4.3608  -4.3537  -4.3396  -4.3275  -4.3207  -4.3096  -4.2740
    -4.2584  -4.2458  -4.2288  -4.2151  -4.1977  -4.1872  -4.1673  -4.1641
    -4.1508  -4.1457  -4.1368  -4.1106  -4.1009  -4.0958  -4.0911  -4.0809
    -4.0647  -4.0616  -4.0488  -4.0380  -4.0337  -4.0077  -3.9788  -3.9725
    -3.9699  -3.9532  -3.9391  -3.9365  -3.9193  -3.9102  -3.9000  -3.8959
    -3.8935  -3.8876  -3.8754  -3.8624  -3.8529  -3.8480  -3.8285  -3.8237
    -3.8183  -3.8165  -3.8114  -3.7740  -3.7718  -3.7491  -3.7442  -3.7281
    -3.7105  -3.6960  -3.6907  -3.6836  -3.6804  -3.6663  -3.6606  -3.6403
    -3.6139  -3.6086  -3.5969  -3.5794  -3.5596  -3.5467  -3.5353  -3.5276
    -3.5150  -3.4989  -3.4922  -3.4780  -3.4621  -3.4548  -3.4356  -3.4140
    -3.3957  -3.3874  -3.3683  -3.3639  -3.3526  -3.3329  -3.3217  -3.3126
    -3.2754  -3.2635  -3.2545  -3.2296  -3.2276  -3.2050  -3.1959  -3.1746
    -3.1331  -3.1282  -3.1096  -3.0883  -3.0590  -3.0546  -3.0301  -3.0199
    -3.0126  -2.9909  -2.9844  -2.9662  -2.9402  -2.9355  -2.9304  -2.8825
    -2.8316  -2.8000  -2.7713  -2.7481  -2.7278  -2.7064  -2.6745  -2.6547
    -2.6263  -2.6119  -2.5763  -2.5682  -2.5260  -2.4842  -2.4779  -2.4632
    -2.4468  -2.4280  -2.4045  -2.3936  -2.3717  -2.3413  -2.3347  -2.3260
    -2.3164  -2.2758  -2.2696  -2.2419  -2.2347  -2.2134  -2.1856  -2.1693
    -2.1635  -2.1564  -2.1353  -2.1086  -2.1032  -2.0927  -2.0876  -2.0774
    -2.0621  -2.0537  -2.0386  -2.0287  -2.0215  -2.0129  -1.9987  -1.9834
    -1.9630  -1.9553  -1.9485  -1.9381  -1.9298  -1.9182  -1.9069  -1.8932
    -1.8878  -1.8817  -1.8736  -1.8661  -1.8573  -1.8472  -1.8412  -1.8269
    -1.8222  -1.8176  -1.8054  -1.7991  -1.7918  -1.7826  -1.7761  -1.7656
    -1.7618  -1.7551  -1.7512  -1.7388  -1.7336  -1.7239  -1.7179  -1.7099
    -1.7064  -1.7009  -1.6929  -1.6905  -1.6746  -1.6686  -1.6650  -1.6549
    -1.6496  -1.6469  -1.6424  -1.6357  -1.6256  -1.6182  -1.6063  -1.6034
    -1.5978  -1.5853  -1.5707  -1.5671  -1.5642  -1.5560  -1.5522  -1.5364
    -1.5324  -1.5214  -1.5162  -1.5079  -1.4990  -1.4942  -1.4862  -1.4780
    -1.4734  -1.4614  -1.4594  -1.4577  -1.4471  -1.4442  -1.4303  -1.4263
    -1.4198  -1.4141  -1.4076  -1.3991  -1.3931  -1.3836  -1.3791  -1.3685
    -1.3653  -1.3613  -1.3499  -1.3447  -1.3402  -1.3380  -1.3298  -1.3226
    -1.3191  -1.3116  -1.3014  -1.2950  -1.2819  -1.2760  -1.2668  -1.2633
    -1.2581  -1.2524  -1.2483  -1.2402  -1.2349  -1.2232  -1.2188  -1.2083
    -1.2035  -1.1886  -1.1825  -1.1766  -1.1695  -1.1634  -1.1610  -1.1584
    -1.1485  -1.1423  -1.1380  -1.1345  -1.1332  -1.1288  -1.1217  -1.1150
    -1.1101  -1.1065  -1.0995  -1.0964  -1.0867  -1.0752  -1.0705  -1.0616
    -1.0586  -1.0516  -1.0467  -1.0407  -1.0380  -1.0294  -1.0228  -1.0153
    -1.0096  -1.0074  -0.9993  -0.9941  -0.9892  -0.9828  -0.9777  -0.9752
    -0.9694  -0.9662  -0.9606  -0.9532  -0.9481  -0.9447  -0.9308  -0.9222
    -0.9144  -0.9059  -0.9026  -0.8931  -0.8875  -0.8811  -0.8778  -0.8723
    -0.8696  -0.8649  -0.8584  -0.8571  -0.8495  -0.8406  -0.8373  -0.8328
    -0.8277  -0.8236  -0.8211  -0.8097  -0.8060  -0.7998  -0.7929  -0.7847
    -0.7799  -0.7765  -0.7727  -0.7700  -0.7591  -0.7523  -0.7444  -0.7367
    -0.7312  -0.7248  -0.7193  -0.7159  -0.7087  -0.7021  -0.6954  -0.6888
    -0.6802  -0.6715  -0.6638  -0.6579  -0.6546  -0.6506  -0.6467  -0.6392
    -0.6333  -0.6305  -0.6239  -0.6202  -0.6120  -0.6079  -0.6055  -0.6027
    -0.5929  -0.5902  -0.5859  -0.5792  -0.5761  -0.5702  -0.5676  -0.5628
    -0.5587  -0.5534  -0.5489  -0.5458  -0.5418  -0.5341  -0.5313  -0.5242
    -0.5164  -0.5134  -0.5055  -0.5040  -0.4976  -0.4954  -0.4918  -0.4847
    -0.4764  -0.4703  -0.4667  -0.4579  -0.4560  -0.4505  -0.4427  -0.4396
    -0.4352  -0.4279  -0.4256  -0.4189  -0.4116  -0.4071  -0.4017  -0.3953
    -0.3908  -0.3846  -0.3773  -0.3728  -0.3691  -0.3611  -0.3568  -0.3511
    -0.3482  -0.3403  -0.3377  -0.3303  -0.3257  -0.3231  -0.3155  -0.3126
    -0.3065  -0.3000  -0.2954  -0.2897  -0.2836  -0.2813  -0.2783  -0.2745
    -0.2656  -0.2628  -0.2569  -0.2529  -0.2414  -0.2346  -0.2323  -0.2261
    -0.2188  -0.2173  -0.2135  -0.2067  -0.1962  -0.1935  -0.1856  -0.1831
    -0.1765  -0.1726  -0.1680  -0.1603  -0.1535  -0.1509  -0.1449  -0.1354
    -0.1300  -0.1213  -0.1193  -0.1134  -0.1072  -0.1044  -0.0971  -0.0907
    -0.0865  -0.0794  -0.0747  -0.0715  -0.0616  -0.0583  -0.0555  -0.0492
    -0.0469  -0.0388  -0.0363  -0.0289  -0.0226  -0.0157  -0.0108  -0.0026
    -0.0017   0.0054   0.0108   0.0166   0.0214   0.0237   0.0369   0.0445
     0.0524   0.0548   0.0675   0.0744   0.0798   0.0858   0.0916   0.0983
     0.1032   0.1081   0.1112   0.1207   0.1274   0.1315   0.1372   0.1417
     0.1523   0.1635   0.1664   0.1714   0.1731   0.1757   0.1876   0.1937
     0.1965   0.2067   0.2100   0.2170   0.2237   0.2299   0.2306   0.2366
     0.2481   0.2525   0.2607   0.2640   0.2699   0.2726   0.2781   0.2860
     0.2915   0.2939   0.3025   0.3085   0.3133   0.3201   0.3217   0.3289
     0.3373   0.3451   0.3509   0.3544   0.3635   0.3672   0.3713   0.3779
     0.3870   0.3890   0.3973   0.4010   0.4097   0.4124   0.4199   0.4264
     0.4291   0.4354   0.4370   0.4431   0.4470   0.4473   0.4575   0.4686
     0.4716   0.4778   0.4851   0.4916   0.4957   0.4994   0.5052   0.5129
     0.5164   0.5242   0.5390   0.5398   0.5464   0.5507   0.5591   0.5662
     0.5713   0.5746   0.5796   0.5867   0.5914   0.5982   0.6025   0.6109
     0.6184   0.6218   0.6274   0.6328   0.6366   0.6487   0.6522   0.6576
     0.6643   0.6719   0.6796   0.6935   0.6980   0.7036   0.7113   0.7177
     0.7247   0.7291   0.7350   0.7384   0.7482   0.7538   0.7568   0.7645
     0.7694   0.7736   0.7802   0.7830   0.7871   0.7933   0.7989   0.8116
     0.8172   0.8233   0.8278   0.8329   0.8406   0.8452   0.8506   0.8571
     0.8622   0.8681   0.8754   0.8784   0.8813   0.8861   0.8913   0.9003
     0.9059   0.9161   0.9182   0.9215   0.9311   0.9365   0.9400   0.9438
     0.9481   0.9520   0.9569   0.9606   0.9676   0.9769   0.9844   0.9889
     0.9946   0.9980   1.0096   1.0141   1.0196   1.0224   1.0281   1.0363
     1.0387   1.0434   1.0467   1.0536   1.0569   1.0688   1.0711   1.0767
     1.0779   1.0850   1.0920   1.0954   1.1007   1.1062   1.1092   1.1122
     1.1155   1.1240   1.1270   1.1303   1.1346   1.1390   1.1462   1.1492
     1.1520   1.1560   1.1618   1.1680   1.1752   1.1803   1.1822   1.1849
     1.1918   1.1949   1.1998   1.2031   1.2099   1.2125   1.2181   1.2221
     1.2264   1.2294   1.2325   1.2350   1.2422   1.2429   1.2516   1.2560
     1.2602   1.2642   1.2649   1.2699   1.2731   1.2766   1.2793   1.2871
     1.2922   1.2957   1.2974   1.3048   1.3070   1.3107   1.3167   1.3187
     1.3213   1.3248   1.3285   1.3329   1.3359   1.3397   1.3438   1.3486
     1.3523   1.3589   1.3641   1.3659   1.3679   1.3733   1.3762   1.3794
     1.3815   1.3862   1.3887   1.3943   1.3971   1.4030   1.4066   1.4139
     1.4175   1.4213   1.4265   1.4273   1.4325   1.4341   1.4374   1.4453
     1.4485   1.4540   1.4552   1.4611   1.4668   1.4688   1.4708   1.4747
     1.4791   1.4862   1.4915   1.4928   1.4955   1.5000   1.5036   1.5053
     1.5101   1.5127   1.5153   1.5189   1.5237   1.5250   1.5286   1.5304
     1.5344   1.5372   1.5424   1.5454   1.5521   1.5559   1.5611   1.5654
     1.5720   1.5758   1.5802   1.5830   1.5861   1.5903   1.5966   1.5985
     1.6046   1.6053   1.6089   1.6141   1.6168   1.6193   1.6300   1.6332
     1.6365   1.6388   1.6413   1.6463   1.6473   1.6533   1.6563   1.6605
     1.6656   1.6677   1.6705   1.6736   1.6780   1.6843   1.6864   1.6892
     1.6915   1.6954   1.6989   1.7027   1.7100   1.7141   1.7182   1.7200
     1.7245   1.7282   1.7329   1.7371   1.7413   1.7463   1.7496   1.7534
     1.7562   1.7583   1.7612   1.7658   1.7712   1.7748   1.7764   1.7792
     1.7843   1.7870   1.7903   1.7926   1.7963   1.8000   1.8036   1.8072
     1.8104   1.8136   1.8189   1.8215   1.8272   1.8288   1.8331   1.8386
     1.8405   1.8469   1.8492   1.8525   1.8560   1.8588   1.8603   1.8654
     1.8708   1.8763   1.8779   1.8802   1.8847   1.8863   1.8912   1.8961
     1.8986   1.9032   1.9061   1.9129   1.9156   1.9209   1.9248   1.9268
     1.9297   1.9346   1.9377   1.9456   1.9497   1.9515   1.9584   1.9639
     1.9668   1.9750   1.9766   1.9816   1.9866   1.9917   1.9950   2.0025
     2.0052   2.0086   2.0146   2.0172   2.0243   2.0267   2.0329   2.0360
     2.0392   2.0408   2.0455   2.0506   2.0556   2.0596   2.0623   2.0648
     2.0685   2.0726   2.0773   2.0849   2.0879   2.0932   2.0961   2.1017
     2.1048   2.1127   2.1141   2.1209   2.1245   2.1265   2.1316   2.1344
     2.1391   2.1459   2.1497   2.1535   2.1583   2.1590   2.1645   2.1661
     2.1710   2.1771   2.1825   2.1849   2.1885   2.1947   2.2009   2.2053
     2.2124   2.2164   2.2203   2.2231   2.2285   2.2328   2.2398   2.2431
     2.2447   2.2479   2.2540   2.2610   2.2647   2.2745   2.2770   2.2860
     2.2956   2.3003   2.3081   2.3130   2.3194   2.3315   2.3319   2.3409
     2.3461   2.3561   2.3652   2.3662   2.3765   2.3844   2.3907   2.3969
     2.4054   2.4084   2.4161   2.4218   2.4302   2.4336   2.4401   2.4504
     2.4583   2.4669   2.4713   2.4880   2.4905   2.4942   2.5129   2.5189
     2.5218   2.5285   2.5446   2.5570   2.5604   2.5696   2.5757   2.5831
     2.5950   2.5998   2.6085   2.6103   2.6220   2.6289   2.6320   2.6382
     2.6524   2.6581   2.6734   2.6793   2.6851   2.6923   2.7092   2.7229
     2.7429   2.7687   2.7894   2.8123   2.8380   2.8521   2.8817   2.9281
     2.9615   2.9935   3.0995   3.1205   3.1718   3.2381   3.3561   3.3933
     3.4945   3.5037   3.5596   3.5806   3.6379   3.7152   3.7533   3.8119
     3.8797   3.9770   4.0811   4.1466   4.2665   4.3322   4.3972   4.4413
     4.5048   4.5860   4.6731   4.7066   4.7650   4.7958   4.8447   4.9354
     4.9872   5.0412   5.0956   5.1179   5.1722   5.1946   5.2807   5.3147
     5.3665   5.4144   5.4723   5.4909   5.5534   5.6285   5.6677   5.7175
     5.7851   5.8885   5.9125   5.9916   6.0774   6.1051   6.1620   6.1942
[...]
     atom  373 type  5   force =    -0.01984510   -0.00067288    0.00255439
     atom  374 type  2   force =     0.08868263   -0.07625257   -0.03494135
     atom  375 type  5   force =    -0.03616415   -0.00061826    0.04184441
     atom  376 type  5   force =    -0.02210050    0.05925685   -0.00205295
     atom  377 type  2   force =    -0.04292813    0.00358987    0.04024328
     atom  378 type  5   force =     0.02884620   -0.00834583   -0.01013082
     atom  379 type  5   force =     0.01170542    0.01563022   -0.02615198
     atom  380 type  2   force =     0.03495716   -0.01086768    0.11483906
     atom  381 type  5   force =    -0.00569822   -0.02886223   -0.10606591
     atom  382 type  5   force =    -0.01426261    0.04576039   -0.00507783
     atom  383 type  2   force =    -0.04758481    0.03088170    0.00067422
     atom  384 type  5   force =     0.00973196   -0.02852949    0.04261177
     atom  385 type  5   force =     0.03291016    0.02094826   -0.04984625
     atom  386 type  2   force =    -0.00953589    0.02426303    0.03608516
     atom  387 type  5   force =     0.00072042   -0.03019420   -0.02984188
     atom  388 type  5   force =     0.00645354    0.01529294   -0.00325698
     atom  389 type  2   force =    -0.02668365   -0.04102251    0.06156990
     atom  390 type  5   force =    -0.01463513   -0.01184541   -0.04452889
     atom  391 type  5   force =     0.01589722    0.04237337   -0.01641762
     atom  392 type  2   force =    -0.04886736    0.02995913    0.00957156
     atom  393 type  5   force =     0.02584584   -0.01031754    0.01330220
     atom  394 type  5   force =     0.01344628   -0.03205206   -0.01273471
     atom  395 type  2   force =    -0.03088998    0.02319153    0.00353428
     atom  396 type  5   force =     0.00904979    0.01200294    0.03791197
     atom  397 type  5   force =    -0.00722832   -0.01875314   -0.03021523
     atom  398 type  2   force =    -0.04378681    0.04964437   -0.04719607
     atom  399 type  5   force =     0.00251321   -0.02213965    0.00616275
     atom  400 type  5   force =     0.04443793   -0.04003441    0.02678340
     atom  401 type  2   force =     0.06289275   -0.04915630   -0.03808686
     atom  402 type  5   force =    -0.01382883    0.00929013    0.03151283
     atom  403 type  5   force =    -0.04802061    0.03822527    0.01110424
     atom  404 type  2   force =     0.00962930    0.00222385    0.00447059
     atom  405 type  5   force =    -0.02777143    0.00929641    0.01388120
     atom  406 type  5   force =     0.02854317   -0.01384944   -0.02112776
     atom  407 type  2   force =    -0.03327418   -0.00657925   -0.01026764
     atom  408 type  5   force =     0.03837164    0.00042497   -0.00272853
     atom  409 type  5   force =     0.00705258    0.00215707    0.00577520
     atom  410 type  2   force =    -0.01946284   -0.00256333   -0.03771516
     atom  411 type  5   force =     0.00422090    0.00182851    0.00893002
     atom  412 type  5   force =     0.00608709    0.00852286    0.01469682
     atom  413 type  2   force =    -0.00288244    0.01060897   -0.00905517
     atom  414 type  5   force =     0.00900031   -0.03093625    0.01612676
     atom  415 type  5   force =    -0.00470911    0.00247803    0.00130183
     atom  416 type  2   force =     0.00026089   -0.02039762    0.01135831
     atom  417 type  5   force =     0.00124486    0.00201351   -0.00242603
     atom  418 type  5   force =     0.01897572    0.03450888   -0.00854362
     atom  419 type  2   force =     0.03504818   -0.08156685   -0.02952245
     atom  420 type  5   force =     0.02023332    0.03125565   -0.01212347
     atom  421 type  5   force =    -0.05635935    0.04703331    0.04394292
     atom  422 type  2   force =    -0.01132644   -0.00290583   -0.01224980
     atom  423 type  5   force =    -0.00025695   -0.00773576    0.00144788
     atom  424 type  5   force =     0.02334370    0.01310125    0.00348500
     atom  425 type  2   force =     0.04236648    0.01159597   -0.00269931
     atom  426 type  5   force =    -0.03407048   -0.02094004   -0.01404948
     atom  427 type  5   force =    -0.00109984   -0.01213059    0.00703568
     atom  428 type  2   force =     0.04388420    0.07211363   -0.02841214
     atom  429 type  5   force =    -0.00482940   -0.02901852    0.02898930
     atom  430 type  5   force =    -0.05137951   -0.03619230   -0.00178252
     atom  431 type  2   force =     0.00172384   -0.02964285   -0.01994968
     atom  432 type  5   force =     0.01088464    0.02464164    0.01828092
     atom  433 type  5   force =    -0.00580465   -0.01195633    0.00409258
     atom  434 type  2   force =    -0.01940752    0.03868058   -0.00448856
     atom  435 type  5   force =     0.02304632   -0.00709232    0.01388219
     atom  436 type  5   force =     0.00480475   -0.01584224    0.00317364
     atom  437 type  2   force =     0.00712352    0.01345940   -0.00719448
     atom  438 type  5   force =     0.00132147   -0.00652459    0.00896497
     atom  439 type  5   force =    -0.00388301   -0.01449186    0.00322953
     atom  440 type  2   force =    -0.04216708    0.03689425   -0.05509687
     atom  441 type  5   force =     0.02874853    0.03173446    0.01669455
     atom  442 type  5   force =     0.01429426   -0.06645507    0.03216374
     atom  443 type  2   force =    -0.01813472    0.07047926    0.03573085
     atom  444 type  5   force =     0.01473037   -0.01110982   -0.01585114
     atom  445 type  5   force =     0.01009791   -0.06507545   -0.01454647
     atom  446 type  2   force =     0.00004866    0.04855926    0.01447818
     atom  447 type  5   force =    -0.00364890   -0.02191254   -0.02038657
     atom  448 type  5   force =     0.02297788   -0.00395721   -0.00831362
     atom  449 type  2   force =    -0.00650200    0.01943343   -0.02458696
     atom  450 type  5   force =    -0.01123264   -0.01111064    0.00358787
     atom  451 type  5   force =     0.00880883   -0.00490782    0.01413117
     atom  452 type  2   force =     0.00606618   -0.02872299    0.04696822
     atom  453 type  5   force =     0.00028009    0.01799855   -0.00754643
     atom  454 type  5   force =    -0.00390317    0.01087055   -0.05383950
     atom  455 type  2   force =    -0.01811528   -0.00585502   -0.02894405
     atom  456 type  5   force =    -0.00004616   -0.00705830    0.00803469
     atom  457 type  5   force =     0.01103676    0.00556735    0.02638767
     atom  458 type  2   force =     0.06466365   -0.07128086   -0.03141377
     atom  459 type  5   force =    -0.07421258    0.06076317   -0.01659063
     atom  460 type  5   force =     0.01547738    0.01651430    0.04033313
     atom  461 type  2   force =     0.01056564    0.07248769   -0.04293421
     atom  462 type  5   force =    -0.00737070    0.01099257    0.02880730
     atom  463 type  5   force =    -0.00552902   -0.06692959    0.00480497
     atom  464 type  2   force =    -0.02032057   -0.01618682    0.01650221
     atom  465 type  5   force =     0.00570663    0.01624767    0.00054757
     atom  466 type  5   force =     0.00060226    0.01513573   -0.01214756
     atom  467 type  2   force =     0.03730624    0.17231013    0.05722834
     atom  468 type  5   force =     0.03565611   -0.03537483   -0.05043224
     atom  469 type  5   force =    -0.05589588   -0.13763761    0.00170057
     atom  470 type  2   force =     0.12365075    0.00933890   -0.00811653
     atom  471 type  5   force =    -0.06859119    0.00906472   -0.04191902
     atom  472 type  5   force =    -0.04298904   -0.00747651    0.03027660
     atom  473 type  2   force =     0.04643020    0.03166983   -0.05001144
     atom  474 type  5   force =     0.01387744   -0.00905311    0.06391219
     atom  475 type  5   force =    -0.05982712   -0.02427487   -0.01779977
     atom  476 type  2   force =     0.01276613    0.03278630   -0.00935549
     atom  477 type  5   force =    -0.02860622   -0.00770330    0.02231836
     atom  478 type  5   force =    -0.01341966   -0.04135418   -0.01958022
     atom  479 type  2   force =    -0.06222621   -0.01653247   -0.07388671
     atom  480 type  5   force =    -0.01504958   -0.01247387    0.01072554
     atom  481 type  5   force =     0.05310679    0.03525665    0.05555047
     atom  482 type  2   force =    -0.05511952    0.01625652   -0.00451761
     atom  483 type  5   force =     0.03406188    0.00170119    0.00350928
     atom  484 type  5   force =     0.00524472   -0.04760969   -0.00329787
     atom  485 type  2   force =     0.12847947   -0.01567013   -0.00528372
     atom  486 type  5   force =    -0.11456451    0.01925705   -0.02253674
     atom  487 type  5   force =    -0.02928405   -0.01137547    0.02419506
     atom  488 type  2   force =    -0.01914387   -0.02336400   -0.00821785
     atom  489 type  5   force =     0.01537244   -0.01461193   -0.01145598
     atom  490 type  5   force =    -0.00015075    0.00809284    0.03275220
     atom  491 type  2   force =     0.06398578   -0.00887390    0.02775668
     atom  492 type  5   force =    -0.04473005    0.03777869   -0.01495591
     atom  493 type  5   force =    -0.00769742   -0.02513906   -0.01535977
     atom  494 type  2   force =     0.02249570   -0.03938514    0.03096271
     atom  495 type  5   force =    -0.02135876   -0.00728470   -0.00497381
     atom  496 type  5   force =     0.00888823    0.02365635   -0.02231335
     atom  497 type  2   force =    -0.00471912   -0.02873909    0.02005035
     atom  498 type  5   force =     0.02233283   -0.01194643   -0.04920871
     atom  499 type  5   force =    -0.01874669    0.02291156    0.01469459
     atom  500 type  2   force =    -0.03295440    0.00324653    0.10137160
     atom  501 type  5   force =     0.00740945    0.00058738   -0.01421478
     atom  502 type  5   force =     0.02600012   -0.00775031   -0.07404076
     atom  503 type  2   force =     0.05438772   -0.00581733    0.04042743
     atom  504 type  5   force =    -0.00349465    0.01676184    0.00718857
     atom  505 type  5   force =    -0.04078878    0.00165810   -0.03585111
     atom  506 type  2   force =     0.00306608    0.01891554    0.02481038
     atom  507 type  5   force =     0.01348455    0.00179857   -0.02632154
     atom  508 type  5   force =     0.00092352   -0.03079027   -0.01038020
     atom  509 type  2   force =     0.03699769   -0.05218127   -0.01671578
     atom  510 type  5   force =    -0.01506588    0.02873452    0.00585232
     atom  511 type  5   force =    -0.01098880    0.01437449    0.00147772
     atom  512 type  2   force =     0.03954858   -0.03176880    0.01260530
     atom  513 type  5   force =    -0.00393876    0.01268617   -0.00628806
     atom  514 type  5   force =    -0.01906807    0.02955672   -0.01598761
     atom  515 type  2   force =    -0.01065542   -0.00256260    0.02378796
     atom  516 type  5   force =    -0.00151330   -0.00212192    0.00255661
     atom  517 type  5   force =     0.00814577   -0.01373748    0.00013859
     atom  518 type  2   force =    -0.00292918   -0.01201846    0.04590632
     atom  519 type  5   force =     0.01039645    0.02217307   -0.01929124
     atom  520 type  5   force =    -0.00372068   -0.01602740   -0.01941188
     atom  521 type  2   force =     0.00108532   -0.01111627   -0.08612611
     atom  522 type  5   force =    -0.03901126    0.03965735    0.00537985
     atom  523 type  5   force =     0.03372295   -0.03416064    0.08737909
     atom  524 type  2   force =    -0.02702391    0.03243646    0.00539724
     atom  525 type  5   force =     0.00256881    0.01206966   -0.01485720
     atom  526 type  5   force =     0.01649336   -0.03415307    0.00557390
     atom  527 type  2   force =    -0.00553261   -0.02304359    0.00244922
     atom  528 type  5   force =     0.00273365    0.00751409    0.00097448
     atom  529 type  5   force =     0.01013591    0.01688821    0.00601561
     atom  530 type  2   force =    -0.05476181   -0.00837307    0.11403988
     atom  531 type  5   force =     0.06654226    0.03788615   -0.05551289
     atom  532 type  5   force =    -0.00838629   -0.02532469   -0.05384626
     atom  533 type  2   force =    -0.00597459    0.02516489   -0.00945573
     atom  534 type  5   force =    -0.00315940    0.00395563    0.00984209
     atom  535 type  5   force =     0.01549663    0.00938777    0.00772707
     atom  536 type  2   force =     0.01075007   -0.00486819   -0.04770609
     atom  537 type  5   force =     0.00942139    0.00015364   -0.00243658
     atom  538 type  5   force =    -0.00867129    0.00711594    0.05362953
     atom  539 type  2   force =    -0.08723716   -0.05071568   -0.04438082
     atom  540 type  5   force =     0.02776238    0.05469752    0.04737925
     atom  541 type  5   force =     0.05620659   -0.00759963    0.00872528
     atom  542 type  2   force =    -0.01808245   -0.01928336   -0.02591624
     atom  543 type  5   force =     0.02938848    0.01255946    0.00983304
     atom  544 type  5   force =    -0.01449569    0.01778623    0.02971985
     atom  545 type  2   force =     0.09191302    0.02084107    0.01632219
     atom  546 type  5   force =    -0.05759506   -0.02430558    0.00842142
     atom  547 type  5   force =    -0.02713113    0.01414653   -0.02457871
     atom  548 type  2   force =     0.00408174   -0.01382662    0.03542603
     atom  549 type  5   force =    -0.00715621    0.01755532   -0.01505093
     atom  550 type  5   force =     0.00892704   -0.00561100   -0.01522661
     atom  551 type  2   force =     0.06962904    0.00244480   -0.04421280
     atom  552 type  5   force =    -0.05222431   -0.01557252    0.02331045
     atom  553 type  5   force =    -0.04346453    0.00569721    0.01304612
     atom  554 type  2   force =    -0.01709154   -0.00912843   -0.01997069
     atom  555 type  5   force =     0.01649551    0.00853564    0.02482948
     atom  556 type  5   force =     0.00448431   -0.00244379    0.00557281
     atom  557 type  2   force =    -0.08421846   -0.00136288   -0.00667575
     atom  558 type  5   force =     0.03251639   -0.00288131    0.00250181
     atom  559 type  5   force =     0.05206427    0.00415093    0.00222460
     atom  560 type  2   force =     0.01195342   -0.03409089    0.00001537
     atom  561 type  5   force =    -0.02738090    0.01895762    0.01784948
     atom  562 type  5   force =    -0.00937387   -0.00350517   -0.00236598
     atom  563 type  2   force =    -0.02264188    0.03746198    0.05318038
     atom  564 type  5   force =     0.03155419   -0.03683039   -0.03053054
     atom  565 type  5   force =    -0.00784911   -0.00828042   -0.02690245
     atom  566 type  2   force =     0.00422803    0.00438868    0.00146785
     atom  567 type  5   force =     0.03136403    0.03398639    0.00707097
     atom  568 type  5   force =    -0.01592757   -0.03906903   -0.00717496
     atom  569 type  2   force =     0.00402050   -0.05623612   -0.01220502
     atom  570 type  5   force =    -0.02570987    0.02173939   -0.01233496
     atom  571 type  5   force =     0.01141126    0.02718349    0.01725240
     atom  572 type  2   force =    -0.05108532   -0.00987399    0.05774585
     atom  573 type  5   force =     0.02843817   -0.01113337   -0.01419172
     atom  574 type  5   force =     0.01374900    0.05065395   -0.04576577
     atom  575 type  2   force =     0.00019897   -0.00509013   -0.07371627
     atom  576 type  5   force =    -0.03518078    0.02502219   -0.02589370
     atom  577 type  5   force =     0.04016257   -0.02074398    0.10720808
     atom  578 type  2   force =    -0.01733149    0.01871255    0.00476409
     atom  579 type  5   force =     0.00529030   -0.01964802   -0.01133938
     atom  580 type  5   force =     0.02754561    0.00310008   -0.00155100
     atom  581 type  2   force =     0.00867224    0.00714870   -0.01164188
     atom  582 type  5   force =    -0.01867217   -0.02211072    0.01505360
     atom  583 type  5   force =     0.01069124    0.00466068   -0.00287839
     atom  584 type  2   force =    -0.03275315   -0.01528658    0.03828890
     atom  585 type  5   force =    -0.00622415    0.04519252   -0.00681654
     atom  586 type  5   force =     0.02903382    0.00300246   -0.01879291

     Total force =     1.316177     Total SCF correction =     0.000446
 
     init_run     :     26.69s CPU     33.76s WALL (       1 calls)
     electrons    :    533.53s CPU    866.41s WALL (       1 calls)
     forces       :     15.52s CPU     17.78s WALL (       1 calls)

     Called by init_run:
     wfcinit      :      8.55s CPU     14.22s WALL (       1 calls)
                                       14.22s GPU  (       1 calls)
     potinit      :      8.90s CPU      8.99s WALL (       1 calls)
     hinit0       :      6.12s CPU      6.13s WALL (       1 calls)

     Called by electrons:
     c_bands      :    427.08s CPU    714.95s WALL (      41 calls)
     sum_band     :     74.13s CPU    106.96s WALL (      41 calls)
     v_of_rho     :     22.24s CPU     24.07s WALL (      42 calls)
     newd         :      2.07s CPU     13.51s WALL (      42 calls)
                                       13.51s GPU  (      42 calls)
     mix_rho      :      6.11s CPU      6.16s WALL (      41 calls)

     Called by c_bands:
     init_us_2_gp :      7.38s CPU      7.44s WALL (     336 calls)
     cegterg      :    349.18s CPU    613.29s WALL (     164 calls)

     Called by *egterg:
     cdiaghg      :     96.19s CPU    185.45s WALL (     924 calls)
                                      184.76s GPU  (     924 calls)
     h_psi        :    140.84s CPU    205.37s WALL (     928 calls)
                                      205.00s GPU  (     928 calls)
     s_psi        :     10.40s CPU     36.47s WALL (     928 calls)
                                       36.15s GPU  (     928 calls)
     g_psi        :      0.00s CPU      0.29s WALL (     760 calls)
                                        0.28s GPU  (     760 calls)

     Called by h_psi:
     h_psi:calbec :     78.91s CPU    107.34s WALL (     928 calls)
                                      107.32s GPU  (     928 calls)
     vloc_psi     :     54.84s CPU     71.62s WALL (     928 calls)
                                       70.98s GPU  (     928 calls)
     add_vuspsi   :      4.50s CPU     26.27s WALL (     928 calls)
                                       26.26s GPU  (     928 calls)

     General routines
     calbec       :    119.74s CPU    162.16s WALL (    1108 calls)
     fft          :     24.13s CPU     24.65s WALL (     546 calls)
                                        0.80s GPU  (      45 calls)
     ffts         :      0.96s CPU      0.97s WALL (      83 calls)
     fftw         :     63.15s CPU     93.56s WALL (   84342 calls)
                                       78.97s GPU  (   84342 calls)
     interpolate  :      2.56s CPU      2.58s WALL (      42 calls)
 
     Parallel routines
 
     PWSCF        :    576.13s CPU    918.63s WALL

 
   This run was terminated on:  21:54:41  16Nov2021            

=------------------------------------------------------------------------------=
   JOB DONE.
=------------------------------------------------------------------------------=
Warning: ieee_underflow is signaling
Warning: ieee_inexact is signaling
FORTRAN STOP
Warning: ieee_underflow is signaling
Warning: ieee_inexact is signaling
FORTRAN STOP
Warning: ieee_underflow is signaling
Warning: ieee_inexact is signaling
FORTRAN STOP
Warning: ieee_underflow is signaling
Warning: ieee_inexact is signaling
FORTRAN STOP
Warning: ieee_underflow is signaling
Warning: ieee_inexact is signaling
FORTRAN STOP
Warning: ieee_underflow is signaling
Warning: ieee_inexact is signaling
FORTRAN STOP
Warning: ieee_invalid is signaling
Warning: ieee_underflow is signaling
Warning: ieee_inexact is signaling
FORTRAN STOP
Warning: ieee_underflow is signaling
Warning: ieee_inexact is signaling
FORTRAN STOP
